 Gaussian 03, Revision C.02,
 Gaussian 03:  AM64L-G03RevC.02 12-Jun-2004

 -------------------------------------
 # opt freq hf/6-31g geom=connectivity
 -------------------------------------

 -------------------
 Title Card Required
 -------------------
 Symbolic Z-matrix:
 Charge =  0 Multiplicity = 1

 SCF Done:  E(RHF) =  -535.806458174     A.U. after   17 cycles
 SCF Done:  E(RHF) =  -535.812378929     A.U. after   15 cycles
 SCF Done:  E(RHF) =  -535.812440239     A.U. after    9 cycles
 Optimization completed.
    -- Stationary point found.
 Normal termination of Gaussian 03 at Tue Feb  3 12:51:04 2009.

 ------------------------------------------------------------
 #N Geom=AllCheck Guess=Read SCRF=Check GenChk RHF/6-31G Freq
 ------------------------------------------------------------

 Title Card Required
 -------------------
 Redundant internal coordinates taken from checkpoint file:
 /scratch/gaussian_scratch/Gau-32505.chk
 Charge =  0 Multiplicity = 1

                         Standard orientation:
 ---------------------------------------------------------------------
 Center     Atomic     Atomic              Coordinates (Angstroms)
 Number     Number      Type              X           Y           Z
 ---------------------------------------------------------------------
    1          6             0        0.000000    3.640131    0.714801
    2          6             0        0.000000    2.473753    1.400417
    3          6             0        0.000000    1.214566    0.713754
    4          6             0        0.000000    1.214566   -0.713754
    5          6             0        0.000000    2.473753   -1.400417
    6          6             0        0.000000    3.640131   -0.714801
    7          6             0        0.000000    0.000000    1.392398
    8          6             0        0.000000    0.000000   -1.392398
    9          6             0        0.000000   -1.214566   -0.713754
   10          6             0        0.000000   -1.214566    0.713754
   11          6             0        0.000000   -2.473753    1.400417
   12          1             0        0.000000   -2.471097    2.474205
   13          6             0        0.000000   -3.640131    0.714801
   14          6             0        0.000000   -3.640131   -0.714801
   15          6             0        0.000000   -2.473753   -1.400417
   16          1             0        0.000000    0.000000    2.467110
   17          1             0        0.000000    4.576871    1.237784
   18          1             0        0.000000    2.471097    2.474205
   19          1             0        0.000000    2.471097   -2.474205
   20          1             0        0.000000    4.576871   -1.237784
   21          1             0        0.000000    0.000000   -2.467110
   22          1             0        0.000000   -4.576871    1.237784
   23          1             0        0.000000   -4.576871   -1.237784
   24          1             0        0.000000   -2.471097   -2.474205
 ---------------------------------------------------------------------

 SCF Done:  E(RHF) =  -535.812440240     A.U. after    1 cycles

 The electronic state is 1-AG.
 Alpha  occ. eigenvalues --  -11.24795 -11.24791 -11.24699 -11.24690 -11.23852
 Alpha  occ. eigenvalues --  -11.23852 -11.23834 -11.23831 -11.23824 -11.23823
 Alpha  occ. eigenvalues --  -11.23700 -11.23700 -11.23628 -11.23628  -1.19279
 Alpha  occ. eigenvalues --   -1.15190  -1.09131  -1.06732  -1.02694  -1.00864
 Alpha  occ. eigenvalues --   -0.96828  -0.87863  -0.84549  -0.82062  -0.81188
 Alpha  occ. eigenvalues --   -0.74370  -0.71470  -0.69282  -0.64842  -0.64403
 Alpha  occ. eigenvalues --   -0.62672  -0.61966  -0.59413  -0.58283  -0.57476
 Alpha  occ. eigenvalues --   -0.54791  -0.54602  -0.53604  -0.49358  -0.49145
 Alpha  occ. eigenvalues --   -0.48039  -0.46503  -0.41296  -0.40451  -0.34562
 Alpha  occ. eigenvalues --   -0.30953  -0.25731
 Alpha virt. eigenvalues --    0.06661   0.12308   0.15863   0.20465   0.24252
 Alpha virt. eigenvalues --    0.24342   0.24855   0.25227   0.28895   0.29345
 Alpha virt. eigenvalues --    0.31760   0.32032   0.32910   0.33800   0.35787

 Mulliken atomic charges:
              1
     1  C   -0.212884
     2  C   -0.146863
     3  C   -0.069150
     4  C   -0.069150
     5  C   -0.146863
     6  C   -0.212884
     7  C   -0.178816
     8  C   -0.178816
     9  C   -0.069150
    10  C   -0.069150
    11  C   -0.146863
    12  H    0.209163
    13  C   -0.212884
    14  C   -0.212884
    15  C   -0.146863
    16  H    0.217585
    17  H    0.200349
    18  H    0.209163
    19  H    0.209163
    20  H    0.200349
    21  H    0.217585
    22  H    0.200349
    23  H    0.200349
    24  H    0.209163
 Sum of Mulliken charges=   0.00000

 Dipole moment (field-independent basis, Debye):
    X=     0.0000    Y=     0.0000    Z=     0.0000  Tot=     0.0000
 Quadrupole moment (field-independent basis, Debye-Ang):
   XX=   -89.5102   YY=   -70.6184   ZZ=   -71.0061
   XY=     0.0000   XZ=     0.0000   YZ=     0.0000

  Exact polarizability:  39.243   0.000 238.201   0.000   0.000 142.349
 Approx polarizability:  41.591   0.000 214.257   0.000   0.000 147.555

                     1                      2                      3
                    B3U                    AU                     B1U
 Frequencies --   102.5463               136.6878               256.7612
 Red. masses --     4.9470                 3.6065                 4.4617
 Frc consts  --     0.0306                 0.0397                 0.1733
 IR Inten    --     1.3989                 0.0000                 1.8669
 Raman Activ --     0.0000                 0.0000                 0.0000

                     4                      5                      6
                    B1G                    B2G                    B3U
 Frequencies --   261.8304               299.5333               429.9529
 Red. masses --     4.7651                 3.5389                 3.1850
 Frc consts  --     0.1925                 0.1871                 0.3469
 IR Inten    --     0.0000                 0.0000                 0.2651
 Raman Activ --     8.2694                 0.0026                 0.0000

                     7                      8                      9
                    AG                     B3G                    B3U
 Frequencies --   430.1633               436.7534               540.7540
 Red. masses --     6.6793                 4.5998                 2.3242
 Frc consts  --     0.7282                 0.5170                 0.4004
 IR Inten    --     0.0000                 0.0000                31.3645
 Raman Activ --    19.2474                 3.8156                 0.0000

                    10                     11                     12
                    B1G                    AU                     B3G
 Frequencies --   546.3482               566.3556               590.8824
 Red. masses --     2.7098                 3.2404                 6.2627
 Frc consts  --     0.4766                 0.6124                 1.2883
 IR Inten    --     0.0000                 0.0000                 0.0000
 Raman Activ --     4.6194                 0.0000                13.6005

                    13                     14                     15
                    B2G                    B2U                    AG
 Frequencies --   658.4536               676.6646               708.1505
 Red. masses --     2.9033                 6.8524                 6.6515
 Frc consts  --     0.7416                 1.8486                 1.9653
 IR Inten    --     0.0000                 8.8404                 0.0000
 Raman Activ --     0.1135                 0.0000                 1.3711

                    16                     17                     18
                    B1U                    AG                     B3U
 Frequencies --   720.2105               831.9665               845.0907
 Red. masses --     6.0847                 5.7507                 1.1974
 Frc consts  --     1.8595                 2.3452                 0.5038
 IR Inten    --     2.4703                 0.0000               123.1025
 Raman Activ --     0.0000                45.9997                 0.0000

                    19                     20                     21
                    AU                     B2U                    B1G
 Frequencies --   858.7598               870.4459               878.4712
 Red. masses --     3.2728                 4.2557                 1.3449
 Frc consts  --     1.4220                 1.8998                 0.6115
 IR Inten    --     0.0000                 0.2139                 0.0000
 Raman Activ --     0.0000                 0.0000                12.0519

                    22                     23                     24
                    B2G                    B2G                    AU
 Frequencies --   888.3466               969.9385               995.0980
 Red. masses --     2.3274                 1.2969                 1.5712
 Frc consts  --     1.0822                 0.7189                 0.9167
 IR Inten    --     0.0000                 0.0000                 0.0000
 Raman Activ --    17.7911                 4.1378                 0.0000

                    25                     26                     27
                    B1U                    B3G                    B3U
 Frequencies --  1018.1996              1025.8574              1055.4539
 Red. masses --     5.4207                 5.4885                 1.4655
 Frc consts  --     3.3111                 3.4031                 0.9619
 IR Inten    --     4.2929                 0.0000                91.3495
 Raman Activ --     0.0000                 1.3063                 0.0000

                    28                     29                     30
                    B2G                    B2U                    AG
 Frequencies --  1087.5936              1088.7780              1100.0514
 Red. masses --     1.8501                 2.4833                 2.6214
 Frc consts  --     1.2894                 1.7344                 1.8690
 IR Inten    --     0.0000                 2.2761                 0.0000
 Raman Activ --     0.0573                 0.0000                32.0953

                    31                     32                     33
                    B1G                    B3U                    AU
 Frequencies --  1138.8027              1147.0830              1175.3185
 Red. masses --     1.3526                 1.4057                 1.4153
 Frc consts  --     1.0335                 1.0898                 1.1519
 IR Inten    --     0.0000                15.9083                 0.0000
 Raman Activ --     6.9894                 0.0000                 0.0000

                    34                     35                     36
                    B2G                    B2U                    B3G
 Frequencies --  1178.2142              1206.4303              1222.8006
 Red. masses --     1.4491                 2.3627                 2.6478
 Frc consts  --     1.1852                 2.0261                 2.3326
 IR Inten    --     0.0000                 3.8058                 0.0000
 Raman Activ --     9.3476                 0.0000                 0.5292

                    37                     38                     39
                    B1U                    B2U                    AG
 Frequencies --  1294.3712              1307.2831              1318.6967
 Red. masses --     1.4297                 1.2396                 1.0729
 Frc consts  --     1.4113                 1.2482                 1.0993
 IR Inten    --     7.5141                 0.5333                 0.0000
 Raman Activ --     0.0000                 0.0000                 8.6046

                    40                     41                     42
                    B3G                    AG                     B1U
 Frequencies --  1338.1133              1393.4997              1419.5626
 Red. masses --     1.1945                 3.1946                 2.3676
 Frc consts  --     1.2602                 3.6550                 2.8110
 IR Inten    --     0.0000                 0.0000                 7.3665
 Raman Activ --    63.4792               163.9183                 0.0000

                    43                     44                     45
                    B3G                    B2U                    B1U
 Frequencies --  1435.2678              1447.5831              1469.4422
 Red. masses --     1.4598                 1.9105                 2.7164
 Frc consts  --     1.7718                 2.3588                 3.4558
 IR Inten    --     0.0000                 6.7924                 1.6058
 Raman Activ --     0.8115                 0.0000                 0.0000

                    46                     47                     48
                    B3G                    B2U                    AG
 Frequencies --  1561.5702              1563.9449              1574.2950
 Red. masses --     1.4411                 3.8238                 8.0182
 Frc consts  --     2.0705                 5.5105                11.7085
 IR Inten    --     0.0000                 0.0166                 0.0000
 Raman Activ --     2.5324                 0.0000               817.5625

                    49                     50                     51
                    B2U                    B1U                    AG
 Frequencies --  1626.6251              1626.9839              1654.2154
 Red. masses --     1.7548                 2.4049                 2.3114
 Frc consts  --     2.7355                 3.7507                 3.7266
 IR Inten    --     3.7518                 1.4365                 0.0000
 Raman Activ --     0.0000                 0.0000                71.2009

                    52                     53                     54
                    B2U                    AG                     B3G
 Frequencies --  1734.8231              1762.9070              1786.2625
 Red. masses --     4.6674                 6.9355                 4.7750
 Frc consts  --     8.2762                12.6995                 8.9767
 IR Inten    --     9.2482                 0.0000                 0.0000
 Raman Activ --     0.0000               160.1257                 5.2368

                    55                     56                     57
                    B1U                    B3G                    B1U
 Frequencies --  1843.1000              1853.7307              3346.0700
 Red. masses --     5.4393                 6.0814                 1.0902
 Frc consts  --    10.8865                12.3126                 7.1915
 IR Inten    --    12.4689                 0.0000                 5.4131
 Raman Activ --     0.0000                46.6191                 0.0000

                    58                     59                     60
                    AG                     B3G                    B1U
 Frequencies --  3348.5776              3349.6548              3351.0353
 Red. masses --     1.0921                 1.0870                 1.0886
 Frc consts  --     7.2150                 7.1859                 7.2025
 IR Inten    --     0.0000                 0.0000                11.3748
 Raman Activ --    26.6658                24.0200                 0.0000

                    61                     62                     63
                    B2U                    AG                     B3G
 Frequencies --  3355.2169              3357.5244              3372.5044
 Red. masses --     1.0892                 1.0896                 1.0973
 Frc consts  --     7.2244                 7.2369                 7.3535
 IR Inten    --     0.1996                 0.0000                 0.0000
 Raman Activ --     0.0000               307.9784               204.4895

                    64                     65                     66
                    B1U                    B2U                    AG
 Frequencies --  3372.9832              3387.8010              3388.5965
 Red. masses --     1.0974                 1.1000                 1.1000
 Frc consts  --     7.3558                 7.4387                 7.4419
 IR Inten    --    85.7723                94.6706                 0.0000
 Raman Activ --     0.0000                 0.0000               682.7825

 - Thermochemistry -
 -------------------
 Temperature   298.150 Kelvin.  Pressure   1.00000 Atm.
 Atom  1 has atomic number  6 and mass  12.00000

 Molecular mass:   178.07825 amu.
 Principal axes and moments of inertia in atomic units:
                           1         2         3
     EIGENVALUES --   831.231083962.566554793.79763
           X            0.00000   0.00000   1.00000
           Y            1.00000   0.00000   0.00000
           Z            0.00000   1.00000   0.00000
 This molecule is an asymmetric top.
 Rotational symmetry number  4.
 Warning -- assumption of classical behavior for rotation
           may cause significant error
 Rotational temperatures (Kelvin)      0.10420     0.02186     0.01807
 Rotational constants (GHZ):           2.17117     0.45545     0.37647
 Zero-point vibrational energy     553793.2 (Joules/Mol)
                                  132.35975 (Kcal/Mol)
 Warning -- explicit consideration of  12 degrees of freedom as
           vibrations may cause significant error
 Vibrational temperatures:    147.54   196.66   369.42   376.72   430.96
          (Kelvin)            618.61   618.91   628.39   778.02   786.07
                              814.86   850.15   947.37   973.57  1018.87
                             1036.22  1197.01  1215.90  1235.56  1252.38
                             1263.92  1278.13  1395.52  1431.72  1464.96
                             1475.98  1518.56  1564.80  1566.51  1582.73
                             1638.48  1650.39  1691.02  1695.19  1735.78
                             1759.34  1862.31  1880.89  1897.31  1925.24
                             2004.93  2042.43  2065.03  2082.75  2114.20
                             2246.75  2250.17  2265.06  2340.35  2340.86
                             2380.04  2496.02  2536.43  2570.03  2651.81
                             2667.10  4814.24  4817.85  4819.40  4821.39
                             4827.40  4830.72  4852.28  4852.96  4874.28
                             4875.43

 Zero-point correction=                           0.210929 (Hartree/Particle)
 Thermal correction to Energy=                    0.219403
 Thermal correction to Enthalpy=                  0.220347
 Thermal correction to Gibbs Free Energy=         0.178117
 Sum of electronic and zero-point Energies=           -535.601512
 Sum of electronic and thermal Energies=              -535.593038
 Sum of electronic and thermal Enthalpies=            -535.592093
 Sum of electronic and thermal Free Energies=         -535.634324

                     E (Thermal)             CV                S
                      KCal/Mol        Cal/Mol-Kelvin    Cal/Mol-Kelvin
 Total                  137.677             35.863             88.881
 Electronic               0.000              0.000              0.000
 Translational            0.889              2.981             41.438
 Rotational               0.889              2.981             28.380
 Vibrational            135.900             29.902             19.063
 Vibration  1             0.605              1.947              3.405
 Vibration  2             0.614              1.917              2.850
 Vibration  3             0.666              1.751              1.684
 Vibration  4             0.669              1.743              1.650
 Vibration  5             0.692              1.675              1.420
 Vibration  6             0.791              1.405              0.859
 Vibration  7             0.791              1.405              0.858
 Vibration  8             0.797              1.390              0.837
 Vibration  9             0.896              1.160              0.564
 Vibration 10             0.902              1.148              0.552
 Vibration 11             0.922              1.104              0.511
 Vibration 12             0.948              1.051              0.466

 Optimization completed.
    -- Stationary point found.
 Normal termination of Gaussian 03 at Tue Feb  3 12:54:30 2009.
