 Gaussian 03, Revision D.01,
 Gaussian 03:  AM64L-G03RevD.01 13-Oct-2005

 --------------------------------------------------
 #p TD=(Singlets,NStates=52) rb3lyp/6-31g(d) nosymm
 --------------------------------------------------

 ----------------------
 Antracene optimization
 ----------------------
 Symbolic Z-matrix:
 Charge =  0 Multiplicity = 1

                          Input orientation:
 ---------------------------------------------------------------------
 Center     Atomic     Atomic              Coordinates (Angstroms)
 Number     Number      Type              X           Y           Z
 ---------------------------------------------------------------------
    1          6             0        0.000000    0.000000    0.000000
    2          6             0        0.000000    0.000000    1.400000
    3          6             0        1.212436    0.000000    2.100000
    4          6             0        2.424871    0.000000    1.400000
    5          6             0        2.424871    0.000000    0.000000
    6          6             0        1.212436    0.000000   -0.700000
    7          1             0       -0.943102    0.000000    1.944500
    8          1             0        1.212436    0.000000    3.189000
    9          1             0        3.367973    0.000000    1.944500
   10          1             0        3.367973    0.000000   -0.544500
   11          6             0       -1.212436    0.000000   -0.700000
   12          6             0       -1.212436    0.000000   -2.150000
   13          6             0        0.000000    0.000000   -2.850000
   14          6             0        1.212436    0.000000   -2.150000
   15          1             0       -2.155537    0.000000   -0.155500
   16          1             0        2.155537    0.000000   -2.694500
   17          6             0       -2.424871    0.000000   -2.850000
   18          6             0       -2.424871    0.000000   -4.250000
   19          6             0       -1.212436    0.000000   -4.950000
   20          6             0        0.000000    0.000000   -4.250000
   21          1             0       -3.367973    0.000000   -2.305500
   22          1             0       -3.367973    0.000000   -4.794500
   23          1             0       -1.212436    0.000000   -6.039000
   24          1             0        0.943102    0.000000   -4.794500
 ---------------------------------------------------------------------

 SCF Done:  E(RB+HF-LYP) =  -539.517603521     A.U. after   14 cycles

 Excitation energies and oscillator strengths:

 Excited state symmetry could not be determined.
 Excited State   1:   Singlet-?Sym    2.9113 eV  425.88 nm  f=0.0636
      46 -> 49         0.10347
      47 -> 48         0.61956
 This state for optimization and/or second-order correction.
 Total Energy, E(RPA) =  -539.410616852
 Copying the excited state density for this state as the 1-particle RhoCI density.

 Excited state symmetry could not be determined.
 Excited State   2:   Singlet-?Sym    3.8855 eV  319.10 nm  f=0.0008
      46 -> 48         0.52016
      47 -> 49        -0.50031

 Excited state symmetry could not be determined.
 Excited State   3:   Singlet-?Sym    4.2840 eV  289.41 nm  f=0.0000
      45 -> 48         0.54727
      47 -> 50        -0.44027

 Excited state symmetry could not be determined.
 Excited State   4:   Singlet-?Sym    4.6909 eV  264.31 nm  f=0.0000
      44 -> 50         0.10556
      45 -> 48         0.39047
      45 -> 51         0.10255
      47 -> 50         0.51211

 Excited state symmetry could not be determined.
 Excited State   5:   Singlet-?Sym    5.1326 eV  241.56 nm  f=0.0235
      44 -> 48        -0.42833
      47 -> 51         0.54986

 Excited state symmetry could not be determined.
 Excited State   6:   Singlet-?Sym    5.2576 eV  235.82 nm  f=1.7748
      44 -> 48        -0.10022
      46 -> 48         0.40319
      47 -> 49         0.43185

 Excited state symmetry could not be determined.
 Excited State   7:   Singlet-?Sym    5.5282 eV  224.27 nm  f=0.0000
      43 -> 48         0.52705
      45 -> 49        -0.32261
      46 -> 50         0.18734
      47 -> 52        -0.29563

 Excited state symmetry could not be determined.
 Excited State   8:   Singlet-?Sym    5.8753 eV  211.02 nm  f=0.0000
      42 -> 48         0.69990

 Excited state symmetry could not be determined.
 Excited State   9:   Singlet-?Sym    5.8933 eV  210.38 nm  f=0.0560
      44 -> 48         0.49157
      45 -> 50         0.18220
      46 -> 49         0.12270
      47 -> 51         0.37846

 Excited state symmetry could not be determined.
 Excited State  10:   Singlet-?Sym    5.9227 eV  209.34 nm  f=0.0000
      43 -> 48        -0.33575
      45 -> 49        -0.33660
      46 -> 50         0.51709

 Excited state symmetry could not be determined.
 Excited State  11:   Singlet-?Sym    6.2028 eV  199.88 nm  f=0.0000
      43 -> 48         0.12567
      45 -> 49        -0.38665
      46 -> 50        -0.23374
      47 -> 52         0.51665

 Excited state symmetry could not be determined.
 Excited State  12:   Singlet-?Sym    6.2092 eV  199.68 nm  f=0.0492
      44 -> 48        -0.12099
      45 -> 50         0.27120
      46 -> 49         0.58797

 Excited state symmetry could not be determined.
 Excited State  13:   Singlet-?Sym    6.2722 eV  197.67 nm  f=0.0001
      41 -> 48         0.69929

 Excited state symmetry could not be determined.
 Excited State  14:   Singlet-?Sym    6.7078 eV  184.84 nm  f=0.0000
      40 -> 48         0.69502

 Excited state symmetry could not be determined.
 Excited State  15:   Singlet-?Sym    6.7161 eV  184.61 nm  f=0.0011
      43 -> 50        -0.11436
      44 -> 49        -0.40929
      45 -> 52         0.11386
      46 -> 51         0.55252

 Excited state symmetry could not be determined.
 Excited State  16:   Singlet-?Sym    6.8680 eV  180.53 nm  f=0.2811
      44 -> 49         0.10113
      44 -> 51        -0.14271
      45 -> 50         0.57247
      46 -> 49        -0.25097

 Excited state symmetry could not be determined.
 Excited State  17:   Singlet-?Sym    6.8737 eV  180.37 nm  f=0.0000
      47 -> 53         0.69811

 Excited state symmetry could not be determined.
 Excited State  18:   Singlet-?Sym    6.9486 eV  178.43 nm  f=0.0000
      47 -> 54         0.69869

 Excited state symmetry could not be determined.
 Excited State  19:   Singlet-?Sym    7.1337 eV  173.80 nm  f=0.0000
      47 -> 55         0.70229

 Excited state symmetry could not be determined.
 Excited State  20:   Singlet-?Sym    7.1596 eV  173.17 nm  f=0.0000
      43 -> 49        -0.14798
      44 -> 50        -0.15598
      45 -> 51         0.65583

 Excited state symmetry could not be determined.
 Excited State  21:   Singlet-?Sym    7.1828 eV  172.61 nm  f=0.0202
      39 -> 48         0.55388
      44 -> 49        -0.29926
      46 -> 51        -0.27926

 Excited state symmetry could not be determined.
 Excited State  22:   Singlet-?Sym    7.2172 eV  171.79 nm  f=0.0000
      38 -> 48         0.65322
      42 -> 50        -0.24507

 Excited state symmetry could not be determined.
 Excited State  23:   Singlet-?Sym    7.3396 eV  168.93 nm  f=0.0000
      43 -> 48         0.22194
      45 -> 49         0.30687
      46 -> 50         0.32430
      47 -> 52         0.31611

 Excited state symmetry could not be determined.
 Excited State  24:   Singlet-?Sym    7.3903 eV  167.77 nm  f=0.0000
      43 -> 49        -0.46875
      44 -> 50         0.50575

 Excited state symmetry could not be determined.
 Excited State  25:   Singlet-?Sym    7.4321 eV  166.82 nm  f=0.0327
      39 -> 48         0.32485
      43 -> 50         0.49186
      44 -> 49         0.24968
      46 -> 51         0.25992

 Excited state symmetry could not be determined.
 Excited State  26:   Singlet-?Sym    7.5502 eV  164.21 nm  f=0.0000
      43 -> 49        -0.38103
      44 -> 50        -0.38912
      45 -> 51        -0.11099
      46 -> 52         0.41336

 Excited state symmetry could not be determined.
 Excited State  27:   Singlet-?Sym    7.6363 eV  162.36 nm  f=0.0007
      42 -> 49         0.69860

 Excited state symmetry could not be determined.
 Excited State  28:   Singlet-?Sym    7.6378 eV  162.33 nm  f=0.0075
      39 -> 48         0.15639
      43 -> 50        -0.36822
      44 -> 49         0.35015
      45 -> 52         0.42022
      47 -> 58        -0.13782

 Excited state symmetry could not be determined.
 Excited State  29:   Singlet-?Sym    7.8188 eV  158.57 nm  f=0.0040
      37 -> 48         0.67685
      40 -> 50         0.14938

 Excited state symmetry could not be determined.
 Excited State  30:   Singlet-?Sym    7.8678 eV  157.58 nm  f=0.0000
      36 -> 48         0.62396
      42 -> 50         0.25552
      47 -> 56        -0.13103

 Excited state symmetry could not be determined.
 Excited State  31:   Singlet-?Sym    7.8988 eV  156.96 nm  f=0.0000
      36 -> 48         0.12806
      47 -> 56         0.68139

 Excited state symmetry could not be determined.
 Excited State  32:   Singlet-?Sym    7.9618 eV  155.72 nm  f=0.0000
      36 -> 48        -0.27248
      38 -> 48         0.23242
      42 -> 50         0.59663

 Excited state symmetry could not be determined.
 Excited State  33:   Singlet-?Sym    7.9839 eV  155.29 nm  f=0.0000
      41 -> 49         0.69553

 Excited state symmetry could not be determined.
 Excited State  34:   Singlet-?Sym    8.1416 eV  152.29 nm  f=0.0000
      45 -> 55         0.11983
      47 -> 57         0.67924

 Excited state symmetry could not be determined.
 Excited State  35:   Singlet-?Sym    8.1842 eV  151.49 nm  f=0.0000
      43 -> 49         0.26768
      44 -> 50         0.18166
      45 -> 51         0.14892
      46 -> 52         0.52772

 Excited state symmetry could not be determined.
 Excited State  36:   Singlet-?Sym    8.2266 eV  150.71 nm  f=0.0000
      35 -> 48         0.58976
      43 -> 51         0.36547

 Excited state symmetry could not be determined.
 Excited State  37:   Singlet-?Sym    8.2470 eV  150.34 nm  f=0.1554
      43 -> 50         0.22693
      45 -> 52         0.48757
      47 -> 58         0.39895

 Excited state symmetry could not be determined.
 Excited State  38:   Singlet-?Sym    8.2661 eV  149.99 nm  f=0.0000
      34 -> 48         0.50672
      40 -> 49         0.22246
      41 -> 50         0.40184

 Excited state symmetry could not be determined.
 Excited State  39:   Singlet-?Sym    8.3019 eV  149.34 nm  f=0.0000
      34 -> 48        -0.46282
      40 -> 49         0.11310
      41 -> 50         0.49360

 Excited state symmetry could not be determined.
 Excited State  40:   Singlet-?Sym    8.3943 eV  147.70 nm  f=0.0000
      40 -> 49         0.64059
      41 -> 50        -0.22724
      41 -> 52         0.12354

 Excited state symmetry could not be determined.
 Excited State  41:   Singlet-?Sym    8.3991 eV  147.62 nm  f=0.0000
      33 -> 48         0.46642
      38 -> 50        -0.23827
      42 -> 51        -0.45792

 Excited state symmetry could not be determined.
 Excited State  42:   Singlet-?Sym    8.4242 eV  147.18 nm  f=0.0000
      35 -> 48        -0.31831
      43 -> 51         0.55042
      44 -> 52        -0.25227

 Excited state symmetry could not be determined.
 Excited State  43:   Singlet-?Sym    8.4758 eV  146.28 nm  f=0.4779
      44 -> 51         0.65121

 Excited state symmetry could not be determined.
 Excited State  44:   Singlet-?Sym    8.4978 eV  145.90 nm  f=0.0000
      43 -> 54        -0.11180
      46 -> 53         0.68281

 Excited state symmetry could not be determined.
 Excited State  45:   Singlet-?Sym    8.5374 eV  145.23 nm  f=0.0001
      43 -> 53        -0.12652
      45 -> 53        -0.10411
      46 -> 54         0.67865

 Excited state symmetry could not be determined.
 Excited State  46:   Singlet-?Sym    8.6495 eV  143.34 nm  f=0.0018
      33 -> 48         0.25609
      37 -> 48        -0.15538
      40 -> 50         0.51454
      41 -> 51        -0.25210
      42 -> 51         0.25055

 Excited state symmetry could not be determined.
 Excited State  47:   Singlet-?Sym    8.6544 eV  143.26 nm  f=0.0001
      45 -> 53        -0.36438
      47 -> 59         0.57051

 Excited state symmetry could not be determined.
 Excited State  48:   Singlet-?Sym    8.6932 eV  142.62 nm  f=0.0004
      33 -> 48         0.42995
      40 -> 50        -0.29849
      41 -> 51         0.16983
      42 -> 51         0.38706
      47 -> 59         0.12409

 Excited state symmetry could not be determined.
 Excited State  49:   Singlet-?Sym    8.7790 eV  141.23 nm  f=0.0000
      45 -> 53         0.56054
      47 -> 59         0.38000

 Excited state symmetry could not be determined.
 Excited State  50:   Singlet-?Sym    8.8107 eV  140.72 nm  f=0.0000
      44 -> 53         0.13407
      45 -> 54         0.67833

 Excited state symmetry could not be determined.
 Excited State  51:   Singlet-?Sym    8.8488 eV  140.11 nm  f=0.0000
      45 -> 53        -0.10480
      46 -> 55         0.69277

 Excited state symmetry could not be determined.
 Excited State  52:   Singlet-?Sym    8.8827 eV  139.58 nm  f=0.0000
      47 -> 60         0.68627

 Alpha  occ. eigenvalues --  -10.19537 -10.19537 -10.19274 -10.19272 -10.19156
 Alpha  occ. eigenvalues --  -10.19155 -10.19074 -10.19074 -10.19023 -10.19023
 Alpha  occ. eigenvalues --  -10.18940 -10.18940 -10.18919 -10.18919  -0.88192
 Alpha  occ. eigenvalues --   -0.85154  -0.79464  -0.77938  -0.74724  -0.74088
 Alpha  occ. eigenvalues --   -0.68960  -0.64679  -0.60876  -0.60333  -0.59255
 Alpha  occ. eigenvalues --   -0.53657  -0.51762  -0.50099  -0.45821  -0.45661
 Alpha  occ. eigenvalues --   -0.45267  -0.44814  -0.41918  -0.41077  -0.39897
 Alpha  occ. eigenvalues --   -0.39765  -0.39222  -0.37052  -0.36152  -0.35047
 Alpha  occ. eigenvalues --   -0.33631  -0.32301  -0.29766  -0.29209  -0.25129
 Alpha  occ. eigenvalues --   -0.24341  -0.18289
 Alpha virt. eigenvalues --   -0.06685  -0.00275   0.00608   0.03758   0.06657
 Alpha virt. eigenvalues --    0.09979   0.10188   0.11163   0.13933   0.14709
 Alpha virt. eigenvalues --    0.16296   0.16545   0.17095   0.17816   0.18189

 Mulliken atomic charges:
              1
     1  C    0.174526
     2  C   -0.200077
     3  C   -0.139880
     4  C   -0.138980
     5  C   -0.201862
     6  C    0.144116
     7  H    0.130483
     8  H    0.129466
     9  H    0.129503
    10  H    0.130589
    11  C   -0.290117
    12  C    0.144116
    13  C    0.174526
    14  C   -0.290117
    15  H    0.132233
    16  H    0.132233
    17  C   -0.201862
    18  C   -0.138980
    19  C   -0.139880
    20  C   -0.200077
    21  H    0.130589
    22  H    0.129503
    23  H    0.129466
    24  H    0.130483
 Sum of Mulliken charges=   0.00000

 Dipole moment (field-independent basis, Debye):
    X=     0.0000    Y=     0.0000    Z=     0.0000  Tot=     0.0000
 Quadrupole moment (field-independent basis, Debye-Ang):
   XX=   -70.4234   YY=   -85.7842   ZZ=   -70.2867
   XY=     0.0000   XZ=    -0.0383   YZ=     0.0000

 Normal termination of Gaussian 03 at Sat Jan 17 16:21:20 2009.
