 Gaussian 03, Revision E.01,
 Gaussian 03:  EM64L-G03RevE.01 11-Sep-2007

 -----------------------------------
 #p gfinput #B3LYP/6-31+G(d) 5D #Opt
 -----------------------------------

 ------------------------------
 Initial optimization of borane
 ------------------------------
 Symbolic Z-matrix:
 Charge =  0 Multiplicity = 1

 SCF Done:  E(RB+HF-LYP) =  -2208.32441844     A.U. after   15 cycles
 SCF Done:  E(RB+HF-LYP) =  -2208.33476309     A.U. after   15 cycles
 SCF Done:  E(RB+HF-LYP) =  -2208.34001213     A.U. after   18 cycles
 SCF Done:  E(RB+HF-LYP) =  -2208.34437913     A.U. after   16 cycles
 SCF Done:  E(RB+HF-LYP) =  -2208.34663439     A.U. after   16 cycles
 SCF Done:  E(RB+HF-LYP) =  -2208.34815360     A.U. after   27 cycles
 SCF Done:  E(RB+HF-LYP) =  -2208.34828650     A.U. after   15 cycles
 SCF Done:  E(RB+HF-LYP) =  -2208.34880877     A.U. after   17 cycles
 SCF Done:  E(RB+HF-LYP) =  -2208.34953104     A.U. after   18 cycles
 SCF Done:  E(RB+HF-LYP) =  -2208.34960069     A.U. after   18 cycles
 SCF Done:  E(RB+HF-LYP) =  -2208.34953585     A.U. after   21 cycles
 SCF Done:  E(RB+HF-LYP) =  -2208.34960539     A.U. after   18 cycles
 SCF Done:  E(RB+HF-LYP) =  -2208.34961721     A.U. after   18 cycles
 SCF Done:  E(RB+HF-LYP) =  -2208.34961943     A.U. after   19 cycles
 SCF Done:  E(RB+HF-LYP) =  -2208.34958169     A.U. after   25 cycles
 Optimization completed.
    -- Stationary point found.

                         Standard orientation:
 ---------------------------------------------------------------------
 Center     Atomic     Atomic              Coordinates (Angstroms)
 Number     Number      Type              X           Y           Z
 ---------------------------------------------------------------------
    1          9             0       -0.125162   -2.465567   -1.546552
    2          6             0       -1.187354   -2.184974   -0.766307
    3          6             0       -2.243401   -3.089446   -0.795834
    4          9             0       -2.186637   -4.187555   -1.559812
    5          6             0       -3.372037   -2.844773   -0.014377
    6          9             0       -4.389069   -3.707601   -0.020140
    7          6             0       -3.433738   -1.696888    0.774939
    8          6             0       -2.368514   -0.803351    0.758849
    9          9             0       -2.474260    0.283338    1.548400
   10          6             0       -1.206531   -1.007395   -0.002013
   11          9             0        2.169559    1.034581   -1.641176
   12          6             0        2.466779    0.016669   -0.808918
   13          6             0        1.467720   -0.534790    0.007103
   14          6             0        1.874198   -1.603659    0.819560
   15          9             0        0.991274   -2.187090    1.654512
   16          6             0        3.177224   -2.089384    0.840266
   17          9             0        3.522361   -3.098278    1.650315
   18          6             0        4.131397   -1.514479    0.001676
   19          9             0        5.383557   -1.974853   -0.000503
   20          6             0        3.773845   -0.457297   -0.834500
   21          9             0        4.687605    0.089387   -1.646426
   22          9             0       -0.974611    5.666660    0.002373
   23          6             0       -0.751065    4.352057    0.004065
   24          6             0       -1.563652    3.504253   -0.747736
   25          9             0       -2.562549    4.014157   -1.479018
   26          6             0       -1.322386    2.135128   -0.724749
   27          9             0       -2.129129    1.365358   -1.480588
   28          6             0       -0.274822    1.551363    0.006938
   29          6             0        0.522431    2.450360    0.734848
   30          9             0        1.540610    1.992721    1.489031
   31          6             0        0.296614    3.822304    0.756175
   32          9             0        1.071647    4.635239    1.484905
   33          9             0       -4.512242   -1.466919    1.534411
   34          5             0       -0.007366    0.004722    0.006497
 ---------------------------------------------------------------------

 The electronic state is 1-A.
 Alpha  occ. eigenvalues --  -24.77645 -24.77574 -24.77437 -24.76858 -24.76855
 Alpha  occ. eigenvalues --  -24.76814 -24.76805 -24.76791 -24.76786 -24.76740
 Alpha  occ. eigenvalues --  -24.76735 -24.76723 -24.76719 -24.76647 -24.76642
 Alpha  occ. eigenvalues --  -10.34515 -10.34432 -10.34271 -10.33851 -10.33845
 Alpha  occ. eigenvalues --  -10.33778 -10.33759 -10.33624 -10.33619 -10.33399
 Alpha  occ. eigenvalues --  -10.33396 -10.33350 -10.33344 -10.33245 -10.33243
 Alpha  occ. eigenvalues --  -10.24536 -10.24468 -10.24362  -6.82433  -1.29899
 Alpha  occ. eigenvalues --   -1.29827  -1.29697  -1.28956  -1.28889  -1.28779
 Alpha  occ. eigenvalues --   -1.28585  -1.28490  -1.28370  -1.27572  -1.27508
 Alpha  occ. eigenvalues --   -1.27407  -1.27346  -1.27282  -1.27181  -0.93416
 Alpha  occ. eigenvalues --   -0.93236  -0.93131  -0.83152  -0.81634  -0.81538
 Alpha  occ. eigenvalues --   -0.81294  -0.81228  -0.81121  -0.71861  -0.70174
 Alpha  occ. eigenvalues --   -0.70094  -0.69395  -0.69350  -0.69267  -0.63295
 Alpha  occ. eigenvalues --   -0.62922  -0.62837  -0.62313  -0.62216  -0.61958
 Alpha  occ. eigenvalues --   -0.61631  -0.60654  -0.60563  -0.57849  -0.57795
 Alpha  occ. eigenvalues --   -0.57790  -0.57693  -0.57328  -0.57221  -0.55729
 Alpha  occ. eigenvalues --   -0.55625  -0.55512  -0.54931  -0.54800  -0.54550
 Alpha  occ. eigenvalues --   -0.54350  -0.53034  -0.52605  -0.52575  -0.51901
 Alpha  occ. eigenvalues --   -0.51813  -0.51280  -0.50038  -0.49681  -0.49662
 Alpha  occ. eigenvalues --   -0.49419  -0.49371  -0.49272  -0.47481  -0.47430
 Alpha  occ. eigenvalues --   -0.47323  -0.47299  -0.47193  -0.47068  -0.46871
 Alpha  occ. eigenvalues --   -0.46861  -0.44738  -0.44627  -0.44542  -0.43920
 Alpha  occ. eigenvalues --   -0.41991  -0.41943  -0.41813  -0.41167  -0.41026
 Alpha  occ. eigenvalues --   -0.39365  -0.38196  -0.38089  -0.31418  -0.29791
 Alpha  occ. eigenvalues --   -0.29707  -0.29124  -0.29010  -0.28782
 Alpha virt. eigenvalues --   -0.13611  -0.06455  -0.06435  -0.05618  -0.05067
 Alpha virt. eigenvalues --   -0.04792  -0.04651  -0.04228  -0.04159  -0.00482
 Alpha virt. eigenvalues --    0.00293   0.00391   0.01302   0.01343   0.02833

 Mulliken atomic charges:
              1
     1  F   -0.261953
     2  C   -0.097291
     3  C    0.253368
     4  F   -0.331311
     5  C    0.606795
     6  F   -0.322813
     7  C    0.248126
     8  C   -0.067307
     9  F   -0.267127
    10  C    0.400761
    11  F   -0.265555
    12  C   -0.005468
    13  C    0.183152
    14  C   -0.026523
    15  F   -0.264696
    16  C    0.261459
    17  F   -0.330977
    18  C    0.617778
    19  F   -0.323787
    20  C    0.257356
    21  F   -0.331172
    22  F   -0.322273
    23  C    0.602381
    24  C    0.230289
    25  F   -0.332169
    26  C   -0.098411
    27  F   -0.265648
    28  C    0.525068
    29  C   -0.122664
    30  F   -0.262482
    31  C    0.236581
    32  F   -0.331786
    33  F   -0.332096
    34  B    0.540396
 Sum of Mulliken charges=   0.00000

 Dipole moment (field-independent basis, Debye):
    X=    -0.1261    Y=     0.1045    Z=     0.0044  Tot=     0.1639
 Quadrupole moment (field-independent basis, Debye-Ang):
   XX=  -195.7536   YY=  -194.5686   ZZ=  -186.4595
   XY=     0.2062   XZ=     0.1405   YZ=     0.1475

 Normal termination of Gaussian 03 at Fri Jun 18 07:32:27 2010.
