 Gaussian 03, Revision B.04,
 Gaussian 03:  x86-Linux-G03RevB.04 2-Jun-2003

 ------------------------------
 #B3PW91/6-311G opt Pop=regular
 ------------------------------

 ----
 chn1
 ----
 Symbolic Z-matrix:
 Charge =  0 Multiplicity = 1

 SCF Done:  E(RB+HF-PW91) =  -210.082277636     A.U. after   13 cycles
 SCF Done:  E(RB+HF-PW91) =  -210.082284696     A.U. after   13 cycles
 SCF Done:  E(RB+HF-PW91) =  -210.082286819     A.U. after    8 cycles
 SCF Done:  E(RB+HF-PW91) =  -210.082288124     A.U. after    7 cycles
 Optimization completed.
    -- Stationary point found.

                         Standard orientation:
 ---------------------------------------------------------------------
 Center     Atomic     Atomic              Coordinates (Angstroms)
 Number     Number      Type              X           Y           Z
 ---------------------------------------------------------------------
    1          6             0        0.331125   -1.129797    0.000040
    2          6             0       -0.983555   -0.713396    0.000046
    3          6             0       -0.983370    0.713653   -0.000137
    4          6             0        0.331425    1.129710   -0.000069
    5          7             0        1.125489   -0.000147    0.000019
    6          1             0        0.758325   -2.116994   -0.000065
    7          1             0       -1.848713   -1.354642    0.000115
    8          1             0       -1.848360    1.355125    0.000162
    9          1             0        0.758884    2.116794    0.000625
   10          1             0        2.127691   -0.000278   -0.000256
 ---------------------------------------------------------------------

 The electronic state is 1-A.
 Alpha  occ. eigenvalues --  -14.35235 -10.18144 -10.18142 -10.14391 -10.14349
 Alpha  occ. eigenvalues --   -0.98536  -0.78065  -0.72841  -0.59721  -0.57035
 Alpha  occ. eigenvalues --   -0.55049  -0.43628  -0.42855  -0.40826  -0.39376
 Alpha  occ. eigenvalues --   -0.37916  -0.24632  -0.21681
 Alpha virt. eigenvalues --    0.03553   0.04865   0.08202   0.09646   0.10129
 Alpha virt. eigenvalues --    0.11686   0.12950   0.22110   0.22182   0.26867
 Alpha virt. eigenvalues --    0.31384   0.31901   0.37006   0.41459   0.41814

 Mulliken atomic charges:
              1
     1  C    0.103536
     2  C   -0.276144
     3  C   -0.276144
     4  C    0.103535
     5  N   -0.720207
     6  H    0.194331
     7  H    0.167819
     8  H    0.167818
     9  H    0.194331
    10  H    0.341124
 Sum of Mulliken charges=   0.00000

 Dipole moment (field-independent basis, Debye):
    X=     1.9773    Y=    -0.0003    Z=     0.0004  Tot=     1.9773
 Quadrupole moment (field-independent basis, Debye-Ang):
   XX=   -23.3639   YY=   -26.5004   ZZ=   -34.1117
   XY=    -0.0004   XZ=    -0.0015   YZ=     0.0022

 Normal termination of Gaussian 03 at Mon Oct  4 09:31:23 2004.
