 Gaussian 03, Revision C.02,
 Gaussian 03:  IA32L-G03RevC.02 12-Jun-2004

 -----------------------------------------------------------
 # RHF/cc-pVDZ opt=(maxcycle=1000) nosymm gfinput iop(6/7=3)
 -----------------------------------------------------------

 ---------------------------------------------------
 cyclopropenyl - RHF optimization - uklad (short48h)
 ---------------------------------------------------
 Symbolic Z-matrix:
 Charge =  1 Multiplicity = 1

 SCF Done:  E(RHF) =  -114.992327148     A.U. after    9 cycles
 SCF Done:  E(RHF) =  -115.014511115     A.U. after    9 cycles
 SCF Done:  E(RHF) =  -115.014542288     A.U. after    7 cycles
 Optimization completed.
    -- Stationary point found.

                          Input orientation:
 ---------------------------------------------------------------------
 Center     Atomic     Atomic              Coordinates (Angstroms)
 Number     Number      Type              X           Y           Z
 ---------------------------------------------------------------------
    1          6             0        0.027211    0.000000    0.047131
    2          6             0        0.027211    0.000000    1.402869
    3          6             0        1.201315    0.000000    0.725000
    4          1             0       -0.512597    0.000000   -0.887844
    5          1             0       -0.512597    0.000000    2.337844
    6          1             0        2.280931    0.000000    0.725000
 ---------------------------------------------------------------------

 Alpha  occ. eigenvalues --  -11.57338 -11.57117 -11.57117  -1.52447  -1.06829
 Alpha  occ. eigenvalues --   -1.06829  -0.98484  -0.78673  -0.78673  -0.76867
 Alpha virt. eigenvalues --   -0.11372  -0.11372   0.01217   0.01460   0.01460
 Alpha virt. eigenvalues --    0.09613   0.16911   0.16911   0.23656   0.36225
 Alpha virt. eigenvalues --    0.40749   0.40749   0.52172   0.52172   0.57233

 Mulliken atomic charges:
              1
     1  C    0.173932
     2  C    0.173932
     3  C    0.173932
     4  H    0.159401
     5  H    0.159401
     6  H    0.159401
 Sum of Mulliken charges=   1.00000

 Dipole moment (field-independent basis, Debye):
    X=     2.0105    Y=     0.0000    Z=     3.4823  Tot=     4.0210
 Quadrupole moment (field-independent basis, Debye-Ang):
   XX=    -8.9414   YY=   -15.9159   ZZ=    -7.2583
   XY=     0.0000   XZ=     1.4576   YZ=     0.0000

 Normal termination of Gaussian 03 at Sun Nov 26 22:50:23 2006.
