 Gaussian 03, Revision E.01,
 Gaussian 03:  IBM64-G03RevE.01 11-Sep-2007

 -------------------------------
 #p opt b3lyp/6-31g iop(5/103=4)
 -------------------------------

 ---
 edt
 ---
 Symbolic Z-matrix:
 Charge =  0 Multiplicity = 1

 SCF Done:  E(RB+HF-LYP) =  -1559.00792329     A.U. after   12 cycles
 SCF Done:  E(RB+HF-LYP) =  -1559.00794738     A.U. after    9 cycles
 SCF Done:  E(RB+HF-LYP) =  -1559.00794555     A.U. after   12 cycles
 SCF Done:  E(RB+HF-LYP) =  -1559.00795419     A.U. after   10 cycles
 SCF Done:  E(RB+HF-LYP) =  -1559.00795533     A.U. after    9 cycles
 SCF Done:  E(RB+HF-LYP) =  -1559.00795559     A.U. after    7 cycles
 Optimization completed.
    -- Stationary point found.

                          Input orientation:
 ---------------------------------------------------------------------
 Center     Atomic     Atomic              Coordinates (Angstroms)
 Number     Number      Type              X           Y           Z
 ---------------------------------------------------------------------
    1          6             0       -3.306416    0.164021   -0.003195
    2          6             0       -2.707986    1.407399   -0.046711
    3         16             0       -1.998885   -1.128000    0.038976
    4          6             0       -1.288401    1.407217   -0.043309
    5          6             0       -0.690757    0.163270   -0.005323
    6          6             0        0.691029   -0.163266    0.006387
    7          6             0        1.288613   -1.407219    0.044847
    8         16             0        1.999208    1.128062   -0.037172
    9          6             0        2.708279   -1.407417    0.048144
   10          6             0        3.306676   -0.164008    0.004385
   11          8             0       -0.548997    2.592616   -0.089785
   12          8             0       -3.446707    2.593604   -0.080013
   13          8             0        3.446963   -2.593628    0.081581
   14          8             0        0.549226   -2.592607    0.091553
   15          6             0       -2.660272    3.761338   -0.500173
   16          6             0       -1.335362    3.787541    0.246373
   17          6             0        2.660509   -3.761356    0.501680
   18          6             0        1.335561   -3.787496   -0.244767
   19          1             0        2.492815   -3.713388    1.583732
   20          1             0        3.279593   -4.626164    0.260627
   21          1             0        0.715892   -4.632794    0.056523
   22          1             0        1.503404   -3.816144   -1.327488
   23          1             0       -0.715678    4.632816   -0.054944
   24          1             0       -1.503299    3.816315    1.329080
   25          1             0       -3.279355    4.626182   -0.259246
   26          1             0       -2.492483    3.713305   -1.582210
   27         -2             0        7.995106   -0.002422   -0.000794
 ---------------------------------------------------------------------

 Alpha  occ. eigenvalues --  -88.87997 -88.87995 -19.17840 -19.17839 -19.17837
 Alpha  occ. eigenvalues --  -19.17836 -10.25314 -10.25314 -10.25299 -10.25299
 Alpha  occ. eigenvalues --  -10.24379 -10.24379 -10.24344 -10.24343 -10.22064
 Alpha  occ. eigenvalues --  -10.22062 -10.22028 -10.22026  -7.95487  -7.95483
 Alpha  occ. eigenvalues --   -5.91892  -5.91888  -5.91496  -5.91495  -5.90817
 Alpha  occ. eigenvalues --   -5.90817  -1.08053  -1.07993  -1.04452  -1.04399
 Alpha  occ. eigenvalues --   -0.88585  -0.85065  -0.79252  -0.78024  -0.77740
 Alpha  occ. eigenvalues --   -0.70574  -0.70474  -0.70167  -0.66051  -0.63378
 Alpha  occ. eigenvalues --   -0.61864  -0.57297  -0.54418  -0.53256  -0.53159
 Alpha  occ. eigenvalues --   -0.52173  -0.50655  -0.48409  -0.48304  -0.45790
 Alpha  occ. eigenvalues --   -0.43952  -0.43917  -0.43849  -0.43096  -0.42734
 Alpha  occ. eigenvalues --   -0.40681  -0.38838  -0.38189  -0.37793  -0.35576
 Alpha  occ. eigenvalues --   -0.34093  -0.33788  -0.33461  -0.32462  -0.31660
 Alpha  occ. eigenvalues --   -0.30463  -0.29394  -0.28509  -0.27421  -0.21655
 Alpha  occ. eigenvalues --   -0.20791  -0.13300
 Alpha virt. eigenvalues --   -0.07302   0.01393   0.04359   0.04878   0.07301
 Alpha virt. eigenvalues --    0.07391   0.08208   0.08355   0.09891   0.11260
 Alpha virt. eigenvalues --    0.12240   0.13096   0.13458   0.14708   0.14818

 Mulliken atomic charges:
              1
     1  C   -0.354497
     2  C    0.325135
     3  S    0.574833
     4  C    0.325588
     5  C   -0.354648
     6  C   -0.354561
     7  C    0.325546
     8  S    0.574832
     9  C    0.325132
    10  C   -0.354518
    11  O   -0.549080
    12  O   -0.548852
    13  O   -0.548865
    14  O   -0.549063
    15  C   -0.049599
    16  C   -0.049312
    17  C   -0.049572
    18  C   -0.049342
    19  H    0.172761
    20  H    0.167445
    21  H    0.167430
    22  H    0.172793
    23  H    0.167424
    24  H    0.172789
    25  H    0.167442
    26  H    0.172758
 Sum of Mulliken charges=   0.00000

 Dipole moment (field-independent basis, Debye):
    X=     0.0000    Y=    -0.0001    Z=     0.0000  Tot=     0.0001
 Leave Link  601 at Wed Jul  1 17:15:35 2009, MaxMem= 1073741824 cpu:       0.0
 (Enter /opt/g03/l9999.exe)

 Test job not archived.
 1\1\GINC-EARTH\FOpt\RB3LYP\6-31G\C12H8O4S2\LOADL\01-Jul-2009\0\\#p opt
  b3lyp/6-31g iop(5/103=4)\\edt\\0,1\C,-3.3064155765,0.164021193,-0.003
 1953365\C,-2.7079858782,1.4073986079,-0.0467108196\S,-1.9988854977,-1.
 1280003465,0.0389761434\C,-1.2884010409,1.4072171191,-0.0433092912\C,-
 0.6907566672,0.1632696138,-0.0053234289\C,0.691028929,-0.1632656974,0.
 0063866598\C,1.2886130523,-1.4072193483,0.0448465705\S,1.9992076453,1.

 Normal termination of Gaussian 03 at Wed Jul  1 17:22:18 2009.
