 Gaussian 03, Revision D.01,

 -------------------------------
 #T B3LYP/6-31G(d) opt freq Test
 -------------------------------
 ----------
 Untitled-1
 ----------
 Symbolic Z-matrix:
 Charge =  0 Multiplicity = 1

 SCF Done:  E(RB+HF-LYP) =  -449.173264134     A.U. after   12 cycles
 SCF Done:  E(RB+HF-LYP) =  -449.186988804     A.U. after   11 cycles
 SCF Done:  E(RB+HF-LYP) =  -449.190156092     A.U. after   12 cycles
 SCF Done:  E(RB+HF-LYP) =  -449.190421597     A.U. after   12 cycles
 SCF Done:  E(RB+HF-LYP) =  -449.190735160     A.U. after   13 cycles
 SCF Done:  E(RB+HF-LYP) =  -449.191035259     A.U. after   11 cycles
 SCF Done:  E(RB+HF-LYP) =  -449.190801457     A.U. after   13 cycles
 Optimization completed.
    -- Stationary point found.
 Normal termination of Gaussian 03 at Tue Jul 17 13:32:40 2007.

 ----------------------------------------------------------------------
 #T Geom=AllCheck Guess=Read SCRF=Check Test GenChk RB3LYP/6-31G(d) Fre
 q
 ----------------------------------------------------------------------

 Untitled-1
 ----------
 Redundant internal coordinates taken from checkpoint file:
 tms.chk
 Charge =  0 Multiplicity = 1

 SCF Done:  E(RB+HF-LYP) =  -449.190801457     A.U. after    1 cycles

  Exact polarizability:  63.460   0.012  63.400  -0.001   0.004  63.363
 Approx polarizability:  83.405  -0.011  83.331  -0.001   0.006  83.306

                     1                      2                      3
                     A                      A                      A
 Frequencies --    55.0721               139.1305               157.9689
 Red. masses --     1.0218                 1.0163                 1.0301
 Frc consts  --     0.0018                 0.0116                 0.0151
 IR Inten    --     0.0319                 0.0014                 0.0013

                     4                      5                      6
                     A                      A                      A
 Frequencies --   162.6020               184.3667               184.9061
 Red. masses --     1.0518                 2.1816                 2.2707
 Frc consts  --     0.0164                 0.0437                 0.0457
 IR Inten    --     0.0016                 0.0064                 0.0032

                     7                      8                      9
                     A                      A                      A
 Frequencies --   231.4416               233.8996               234.1715
 Red. masses --     2.3610                 2.3649                 2.3624
 Frc consts  --     0.0745                 0.0762                 0.0763
 IR Inten    --     2.3368                 2.3440                 2.3475

                    10                     11                     12
                     A                      A                      A
 Frequencies --   573.2856               688.3738               688.3958
 Red. masses --     3.6165                 2.9275                 2.9321
 Frc consts  --     0.7003                 0.8173                 0.8187
 IR Inten    --     0.0083                12.2186                12.0062

                    13                     14                     15
                     A                      A                      A
 Frequencies --   689.3659               695.2200               703.9226
 Red. masses --     2.6938                 1.2496                 1.1864
 Frc consts  --     0.7542                 0.3559                 0.3464
 IR Inten    --    12.1594                 1.9152                 0.5426

                    16                     17                     18
                     A                      A                      A
 Frequencies --   707.1498               844.3153               845.2775
 Red. masses --     1.1787                 1.3047                 1.3047
 Frc consts  --     0.3473                 0.5480                 0.5492
 IR Inten    --     0.4221                 0.3761                 0.3391

                    19                     20                     21
                     A                      A                      A
 Frequencies --   906.1922               907.0949               907.8971
 Red. masses --     1.6995                 1.6978                 1.6806
 Frc consts  --     0.8223                 0.8231                 0.8162
 IR Inten    --   138.8032               139.1804               137.9501

                    22                     23                     24
                     A                      A                      A
 Frequencies --  1326.5852              1327.1586              1328.9275
 Red. masses --     1.2464                 1.2460                 1.2425
 Frc consts  --     1.2923                 1.2930                 1.2929
 IR Inten    --    29.7864                30.5107                30.1888

                    25                     26                     27
                     A                      A                      A
 Frequencies --  1342.2591              1489.8428              1490.7503
 Red. masses --     1.2111                 1.0545                 1.0534
 Frc consts  --     1.2856                 1.3791                 1.3793
 IR Inten    --     0.1683                 0.0342                 0.0523

                    28                     29                     30
                     A                      A                      A
 Frequencies --  1491.7355              1494.6766              1495.3998
 Red. masses --     1.0531                 1.0522                 1.0522
 Frc consts  --     1.3807                 1.3849                 1.3863
 IR Inten    --     0.0256                 0.3609                 0.4374

                    31                     32                     33
                     A                      A                      A
 Frequencies --  1508.3459              1508.7827              1509.6069
 Red. masses --     1.0472                 1.0471                 1.0466
 Frc consts  --     1.4038                 1.4044                 1.4052
 IR Inten    --     3.9733                 4.1400                 4.4188

                    34                     35                     36
                     A                      A                      A
 Frequencies --  3039.6995              3040.1515              3041.4312
 Red. masses --     1.0354                 1.0354                 1.0354
 Frc consts  --     5.6364                 5.6381                 5.6429
 IR Inten    --     9.6495                10.1064                 7.4831

                    37                     38                     39
                     A                      A                      A
 Frequencies --  3043.5680              3110.6351              3111.8848
 Red. masses --     1.0354                 1.1007                 1.1008
 Frc consts  --     5.6512                 6.2749                 6.2805
 IR Inten    --     3.2283                 0.6921                 1.5165

                    40                     41                     42
                     A                      A                      A
 Frequencies --  3112.2424              3112.5161              3113.0591
 Red. masses --     1.1007                 1.1004                 1.1007
 Frc consts  --     6.2817                 6.2808                 6.2846
 IR Inten    --     2.3649                14.1862                 7.0115

                    43                     44                     45
                     A                      A                      A
 Frequencies --  3114.7142              3115.3500              3115.8892
 Red. masses --     1.1001                 1.1000                 1.1000
 Frc consts  --     6.2883                 6.2899                 6.2921
 IR Inten    --    37.0971                40.9806                40.8074

 Normal termination of Gaussian 03 at Tue Jul 17 13:39:23 2007.
 Gaussian 03:  AM64L-G03RevD.01 13-Oct-2005

 ----------------------------------------------
 #T B3LYP/6-31G(d) NMR Geom=AllCheck Guess=Read
 ----------------------------------------------

 Untitled-1
 ----------
 Redundant internal coordinates taken from checkpoint file:
 tms.chk
 Charge =  0 Multiplicity = 1

                         Standard orientation:
 ---------------------------------------------------------------------
 Center     Atomic     Atomic              Coordinates (Angstroms)
 Number     Number      Type              X           Y           Z
 ---------------------------------------------------------------------
    1          6             0        1.805523   -0.599601   -0.027910
    2         14             0        0.002050    0.001059   -0.000031
    3          6             0       -0.902315   -0.622929   -1.545402
    4          6             0       -0.035018    1.896373    0.031390
    5          6             0       -0.870618   -0.673789    1.542152
    6          1             0        2.214356   -0.689764    0.985599
    7          1             0        2.451811    0.091393   -0.582030
    8          1             0        1.894493   -1.582499   -0.505828
    9          1             0       -1.942298   -0.274872   -1.567326
   10          1             0       -0.920505   -1.719183   -1.577165
   11          1             0       -0.419281   -0.277045   -2.467239
   12          1             0       -1.063408    2.276628    0.056985
   13          1             0        0.451789    2.318638   -0.855813
   14          1             0        0.485660    2.294461    0.910757
   15          1             0       -1.914455   -0.339719    1.587724
   16          1             0       -0.376693   -0.342627    2.463606
   17          1             0       -0.875594   -1.770556    1.549782
 ---------------------------------------------------------------------

 SCF Done:  E(RB+HF-LYP) =  -449.190801457     A.U. after    1 cycles

  1  C    Isotropic =   190.4962   Anisotropy =     9.0426

  2  Si   Isotropic =   415.1031   Anisotropy =     0.4087

  3  C    Isotropic =   189.1242   Anisotropy =     7.4987

  4  C    Isotropic =   189.1786   Anisotropy =     7.4946

  5  C    Isotropic =   189.1219   Anisotropy =     7.5338

  6  H    Isotropic =    32.1566   Anisotropy =     9.3475

  7  H    Isotropic =    32.1606   Anisotropy =     9.3467

  8  H    Isotropic =    32.1574   Anisotropy =     9.3415

  9  H    Isotropic =    32.1964   Anisotropy =     9.4003

 10  H    Isotropic =    32.2095   Anisotropy =     9.3271

 11  H    Isotropic =    32.1369   Anisotropy =     9.3092

 12  H    Isotropic =    32.2015   Anisotropy =     9.4349

 13  H    Isotropic =    32.2069   Anisotropy =     9.3506

 14  H    Isotropic =    32.1357   Anisotropy =     9.2659

 15  H    Isotropic =    32.1956   Anisotropy =     9.3941

 16  H    Isotropic =    32.2046   Anisotropy =     9.4016

 17  H    Isotropic =    32.1462   Anisotropy =     9.2422

 The electronic state is 1-A.
 Alpha  occ. eigenvalues --  -66.11191 -10.15491 -10.15489 -10.15488 -10.15484
 Alpha  occ. eigenvalues --   -5.25627  -3.61500  -3.61500  -3.61499  -0.71093
 Alpha  occ. eigenvalues --   -0.66966  -0.66941  -0.66939  -0.45071  -0.40582
 Alpha  occ. eigenvalues --   -0.40493  -0.40477  -0.39168  -0.39152  -0.37356
 Alpha  occ. eigenvalues --   -0.37318  -0.37311  -0.28883  -0.28840  -0.28838
 Alpha virt. eigenvalues --    0.07600   0.10035   0.10067   0.10293   0.14104
 Alpha virt. eigenvalues --    0.14158   0.14203   0.15076   0.15143   0.18694
 Alpha virt. eigenvalues --    0.18811   0.19935   0.20741   0.21546   0.22259

 Mulliken atomic charges:
              1
     1  C   -0.662627
     2  Si   0.745519
     3  C   -0.655137
     4  C   -0.655120
     5  C   -0.655091
     6  H    0.157411
     7  H    0.157346
     8  H    0.157344
     9  H    0.156766
    10  H    0.156480
    11  H    0.156825
    12  H    0.156739
    13  H    0.156592
    14  H    0.156932
    15  H    0.156742
    16  H    0.156444
    17  H    0.156835
 Sum of Mulliken charges=   0.00000

 Dipole moment (field-independent basis, Debye):
    X=     0.0133    Y=    -0.0049    Z=    -0.0015  Tot=     0.0143
 1\1\GINC-CN01\SP\RB3LYP\6-31G(d)\C4H12Si1\IIECS01\17-Jul-2007\0\\#T B3
 LYP/6-31G(d) NMR Geom=AllCheck Guess=Read\\Untitled-1\\0,1\C,0,-1.6819
 004494,-0.9869184119,0.104792354\Si,0,-0.0016054679,-0.0979279014,0.12
 45744193\C,0,-0.1189872848,1.4647759801,1.1920878986\C,0,0.4838506608,
 0.3806536737,-1.6445687057\C,0,1.3188191684,-1.2471475084,0.8533206503
 \H,0,-1.5644809375,-2.0635559553,-0.0670772509\H,0,-2.334322618,-0.597
 7759679,-0.6858551097\H,0,-2.2134847791,-0.8629126232,1.0558178025\H,0
 ,0.8321817466,2.010904473,1.2065468678\H,0,-0.3727013252,1.2164359591,
 2.2299072728\H,0,-0.8888880601,2.1530638471,0.8229611129\H,0,1.4553804
 145,0.8889099874,-1.6698637084\H,0,-0.2549915193,1.0569928073,-2.09077

 Normal termination of Gaussian 03 at Tue Jul 17 13:40:45 2007.
