                         Program Version 2.8 -    STABLE   -
|  1> ! bp86 svp mulliken loewdin mayer printmos
|  2> %plots format cube
|  3>     mo("co-4.cube", 4, 0);
|  4>     mo("co-8.cube", 8, 0);
|  5> end
|  6> * xyz 0 1
|  7>   C 0 0 0
|  8>   O 0 0 1.13
|  9> *
| 10>
| 11>
| 12>                          ****END OF INPUT****

CARTESIAN COORDINATES (ANGSTROEM)
---------------------------------
  C      0.000000    0.000000    0.000000
  O      0.000000    0.000000    1.130000

 Total Charge           Charge          ....    0
 Multiplicity           Mult            ....    1
 Number of Electrons    NEL             ....   14
 Basis Dimension        Dim             ....   28

ORBITAL ENERGIES
----------------

  NO   OCC          E(Eh)            E(eV)
   0   2.0000     -18.887212      -513.9472
   1   2.0000     -10.023401      -272.7506
   2   2.0000      -1.065321       -28.9889
   3   2.0000      -0.510425       -13.8894
   4   2.0000      -0.434303       -11.8180
   5   2.0000      -0.434303       -11.8180
   6   2.0000      -0.327082        -8.9004
   7   0.0000      -0.068079        -1.8525
   8   0.0000      -0.068079        -1.8525
   9   0.0000       0.197451         5.3729
  10   0.0000       0.369095        10.0436
  11   0.0000       0.420696        11.4477

MULLIKEN ATOMIC CHARGES
-----------------------
   0 C :   -0.011621
   1 O :    0.011621
Sum of atomic charges:   -0.0000000

LOEWDIN ATOMIC CHARGES
----------------------
   0 C :   -0.071035
   1 O :    0.071035

  Mayer bond orders larger than 0.1
B(  0-C ,  1-O ) :   2.5561

FINAL SINGLE POINT ENERGY     -113.225638813

DIPOLE MOMENT
-------------
                                X             Y             Z
Electronic contribution:     -0.00000       0.00000       0.12586
Nuclear contribution   :      0.00000       0.00000       0.00717
                        -----------------------------------------
Total Dipole Moment    :     -0.00000       0.00000       0.13303
                        -----------------------------------------
Magnitude (a.u.)       :      0.13303
Magnitude (Debye)      :      0.33814

                             ****ORCA TERMINATED NORMALLY****
TOTAL RUN TIME: 0 days 0 hours 0 minutes 4 seconds 930 msec
