                         Program Version 2.8 -    STABLE   -
|  1> ! bp86 svp cosmo opt
|  2>
|  3> %scf
|  4>     maxiter 8
|  5> end
|  6>
|  7> %cosmo
|  8>     epsilon 4
|  9> end
| 10>
| 11> * xyz 0 1
| 12>   C 0 0 0
| 13>   O 0 0 1.13
| 14> *
| 15>
| 16>                          ****END OF INPUT****
 Total Charge           Charge          ....    0
 Multiplicity           Mult            ....    1
 Number of Electrons    NEL             ....   14
FINAL SINGLE POINT ENERGY     -113.226288154
FINAL SINGLE POINT ENERGY     -113.226698000
FINAL SINGLE POINT ENERGY     -113.226704897
                    ***********************HURRAY********************

CARTESIAN COORDINATES (ANGSTROEM)
---------------------------------
  C      0.000000    0.000000   -0.005903
  O      0.000000    0.000000    1.135903

 Multiplicity           Mult            ....    1
 Number of Electrons    NEL             ....   14
 Basis Dimension        Dim             ....   28

ORBITAL ENERGIES
----------------

  NO   OCC          E(Eh)            E(eV)
   0   2.0000     -18.885269      -513.8943
   1   2.0000     -10.025279      -272.8017
   2   2.0000      -1.056448       -28.7474
   3   2.0000      -0.508613       -13.8401
   4   2.0000      -0.427682       -11.6378
   5   2.0000      -0.427679       -11.6377
   6   2.0000      -0.327676        -8.9165
   7   0.0000      -0.070412        -1.9160
   8   0.0000      -0.070411        -1.9160
   9   0.0000       0.199742         5.4353
  10   0.0000       0.364860         9.9283
  11   0.0000       0.424061        11.5393

MULLIKEN ATOMIC CHARGES
-----------------------
   0 C :    0.001940
   1 O :   -0.001940
Sum of atomic charges:   -0.0000000

LOEWDIN ATOMIC CHARGES
----------------------
   0 C :   -0.062892
   1 O :    0.062892

  Mayer bond orders larger than 0.1
B(  0-C ,  1-O ) :   2.5561

FINAL SINGLE POINT ENERGY     -113.226704897

DIPOLE MOMENT
-------------
                                X             Y             Z
Electronic contribution:     -0.00002       0.00002       0.12457
Nuclear contribution   :      0.00000       0.00000       0.00724
                        -----------------------------------------
Total Dipole Moment    :     -0.00002       0.00002       0.13181
                        -----------------------------------------
Magnitude (a.u.)       :      0.13181
Magnitude (Debye)      :      0.33503

                             ****ORCA TERMINATED NORMALLY****
TOTAL RUN TIME: 0 days 0 hours 0 minutes 49 seconds 505 msec
