 Gaussian 98, Revision A.11.3,
 Gaussian 98:  x86-Linux-G98RevA.11.3 5-Feb-2002

 -----------
 #p HF/3-21G
 -----------

 -------------------
 Title card required
 -------------------
 Symbolic Z-matrix:
 Charge = -3 Multiplicity =10

                         Z-Matrix orientation:
 ---------------------------------------------------------------------
 Center     Atomic     Atomic              Coordinates (Angstroms)
 Number     Number      Type              X           Y           Z
 ---------------------------------------------------------------------
    1          6             0        0.000000    0.000000    0.000000
 ---------------------------------------------------------------------

 SCF Done:  E(UHF) =  -23.0464838951     A.U. after    2 cycles

 Alpha  occ. eigenvalues --  -11.75728   0.11813   0.58635   0.58635   0.58635
 Alpha  occ. eigenvalues --    1.35582   1.35582   1.35582   1.65410
  Beta virt. eigenvalues --   -7.96678   1.21514   1.40777   1.40777   1.40777
  Beta virt. eigenvalues --    2.37698   2.37698   2.37698   2.73369

 Normal termination of Gaussian 98.
