 Gaussian 98, Revision A.11.4,
 Gaussian 98:  x86-Linux-G98RevA.11.4 7-May-2002

 ---------------------------------------------------------------
 #P STO-3G SCF(MaxCycle=500,conver=8) Pop=(NPA) Freq IOP(7/33=1)
 ---------------------------------------------------------------

 ----
 Test
 ----
 Symbolic Z-matrix:
 Charge =  0 Multiplicity = 1

                         Standard orientation:
 ---------------------------------------------------------------------
 Center     Atomic     Atomic              Coordinates (Angstroms)
 Number     Number      Type              X           Y           Z
 ---------------------------------------------------------------------
    1          1             0        0.000000    0.000000    1.250000
    2          1             0        0.000000    0.000000   -1.250000
 ---------------------------------------------------------------------

 SCF Done:  E(RHF) = -0.702943622283     A.U. after    1 cycles

  The electronic state is 1-SGG.
 Alpha  occ. eigenvalues --   -0.21447
 Alpha virt. eigenvalues --    0.04995

  Exact polarizability:   0.000   0.000   0.000   0.000   0.000  36.208
 Approx polarizability:   0.000   0.000   0.000   0.000   0.000  84.616

 Summary of Natural Population Analysis:

                                       Natural Population
               Natural   -----------------------------------------------
    Atom No    Charge        Core      Valence    Rydberg      Total
 -----------------------------------------------------------------------
      H  1    0.00000      0.00000     1.00000    0.00000     1.00000
      H  2    0.00000      0.00000     1.00000    0.00000     1.00000
 =======================================================================
   * Total *  0.00000      0.00000     2.00000    0.00000     2.00000

 ******    1 imaginary frequencies (negative Signs) ******

                     1
                    SGG
 Frequencies -- -1407.9574
 Red. masses --     1.0078
 Frc consts  --     1.1771
 IR Inten    --     0.0000
 Raman Activ --   445.3520

 - Thermochemistry -
 -------------------
 Temperature   298.150 Kelvin.  Pressure   1.00000 Atm.
 Atom  1 has atomic number  1 and mass   1.00783

 Molecular mass:     2.01565 amu.
 Principal axes and moments of inertia in atomic units:
                           1         2         3
     EIGENVALUES --     0.00000  11.24690  11.24690
           X            0.00000   1.00000   0.00000
           Y            0.00000   0.00000   1.00000
           Z            1.00000   0.00000   0.00000
 THIS MOLECULE IS A PROLATE SYMMETRIC TOP.
 ROTATIONAL SYMMETRY NUMBER  2.
 ROTATIONAL TEMPERATURE (KELVIN)      7.70109
 ROTATIONAL CONSTANT (GHZ)          160.465653
    1 IMAGINARY FREQUENCIES IGNORED.
 Zero-point vibrational energy          0.0 (Joules/Mol)
                                    0.00000 (Kcal/Mol)
 VIBRATIONAL TEMPERATURES:
          (KELVIN)

 Zero-point correction=                           0.000000 (Hartree/Particle)
 Thermal correction to Energy=                    0.002360
 Thermal correction to Enthalpy=                  0.003305
 Thermal correction to Gibbs Free Energy=        -0.013779
 Sum of electronic and zero-point Energies=             -0.702944
 Sum of electronic and thermal Energies=                -0.700583
 Sum of electronic and thermal Enthalpies=              -0.699639
 Sum of electronic and thermal Free Energies=           -0.716723

                     E (Thermal)             CV                S
                      KCAL/MOL        CAL/MOL-KELVIN    CAL/MOL-KELVIN
 TOTAL                    1.481              4.968             35.956
 ELECTRONIC               0.000              0.000              0.000
 TRANSLATIONAL            0.889              2.981             28.080
 ROTATIONAL               0.592              1.987              7.876
 VIBRATIONAL              0.000              0.000              0.000
                       Q            LOG10(Q)             LN(Q)
 TOTAL BOT       0.217739D+07          6.337936         14.593636
 TOTAL V=0       0.217739D+07          6.337936         14.593636
 VIB (BOT)       0.100000D+01          0.000000          0.000000
 VIB (V=0)       0.100000D+01          0.000000          0.000000
 ELECTRONIC      0.100000D+01          0.000000          0.000000
 TRANSLATIONAL   0.112482D+06          5.051083         11.630549
 ROTATIONAL      0.193576D+02          1.286852          2.963087
 ***** Axes restored to original set *****
 -------------------------------------------------------------------
 Center     Atomic                   Forces (Hartrees/Bohr)
 Number     Number              X              Y              Z
 -------------------------------------------------------------------
    1          1           0.000000000    0.000000000    0.064932895
    2          1           0.000000000    0.000000000   -0.064932895
 -------------------------------------------------------------------
 Cartesian Forces:  Max     0.064932895 RMS     0.037489024
 FROM PUTF, CONTENTS OF FORCE
   1   -0.6493289496D-01
 ------------------------------------------------------------------------
           Internal Coordinate Forces (Hartree/Bohr or radian)
 Cent Atom N1     Length/X     N2     Alpha/Y      N3      Beta/Z       J
 ------------------------------------------------------------------------
   1  H
   2  H     1  -0.064933(   1)
 ------------------------------------------------------------------------
 Internal  Forces:  Max     0.064932895 RMS     0.064932895
 Force constants in Cartesian coordinates:
             1             2             3             4             5
   1  0.137444D-01
   2  0.000000D+00  0.137444D-01
   3  0.000000D+00  0.000000D+00 -0.378029D-01
   4 -0.137444D-01  0.000000D+00  0.000000D+00  0.137444D-01
   5  0.000000D+00 -0.137444D-01  0.000000D+00  0.000000D+00  0.137444D-01
   6  0.000000D+00  0.000000D+00  0.378029D-01  0.000000D+00  0.000000D+00
             6
   6 -0.378029D-01
 FCInt: Cartesian first derivatives:
            1            2
   1 0.833063D-17-0.833063D-17
   2 0.795172D-17-0.795172D-17
   3 0.649329D-01-0.649329D-01
 FCInt: Cartesian force constants:
             1             2             3             4             5
   1  0.137444D-01
   2 -0.107975D-32  0.137444D-01
   3 -0.830068D-17 -0.526499D-17 -0.378029D-01
   4 -0.137444D-01  0.114572D-32  0.869168D-17  0.137444D-01
   5  0.112165D-32 -0.137444D-01  0.526499D-17 -0.116940D-32  0.137444D-01
   6  0.869168D-17  0.526499D-17  0.378029D-01 -0.908268D-17 -0.526499D-17
             6
   6 -0.378029D-01
 Internal force constants:
             1
   1 -0.378029D-01
 FROM PUTFF, CONTENTS OF FRCNST
             1
   1 -0.378029D-01
 Force constants in internal coordinates:
             1
   1 -0.378029D-01
 Final forces over variables, Energy=-7.02943622D-01:
 -6.49328950D-02

 Normal termination of Gaussian 98.
