 Gaussian 98, Revision A.11.4,
 Gaussian 98:  x86-Linux-G98RevA.11.4 7-May-2002

 --------------------------------------------
 #P STO-3G SCF(MaxCycle=500) Freq IOP(7/33=1)
 --------------------------------------------

 ----
 Test
 ----
 Symbolic Z-matrix:
 Charge =  0 Multiplicity = 1

                         Standard orientation:
 ---------------------------------------------------------------------
 Center     Atomic     Atomic              Coordinates (Angstroms)
 Number     Number      Type              X           Y           Z
 ---------------------------------------------------------------------
    1         29             0        0.000000    0.000000    1.250000
    2         29             0        0.000000    0.000000   -1.250000
 ---------------------------------------------------------------------

 SCF Done:  E(RHF) =  -3240.54118981     A.U. after   68 cycles

 Unable to determine electronic state: an orbital has unidentified symmetry.
 Alpha  occ. eigenvalues -- -325.77964-325.77964 -40.37432 -40.37426 -35.89116
 Alpha  occ. eigenvalues --  -35.89114 -35.87595 -35.87593 -35.82792 -35.82790
 Alpha  occ. eigenvalues --   -5.16444  -5.16442  -3.50780  -3.50644  -3.50092
 Alpha  occ. eigenvalues --   -3.50015  -3.46855  -3.46763  -0.48557  -0.48427
 Alpha  occ. eigenvalues --   -0.47121  -0.38421  -0.38063  -0.36167  -0.36166
 Alpha  occ. eigenvalues --   -0.33719  -0.32858  -0.27095  -0.16675
 Alpha virt. eigenvalues --    0.04145   0.05801   0.16543   0.18143   0.31509
 Alpha virt. eigenvalues --    0.62093   0.65267

  Exact polarizability: 143.600   0.000  63.400   0.000   0.000  51.191
 Approx polarizability:  48.287   0.000  46.009   0.000   0.000  43.269

                     1
                    SGG
 Frequencies --   422.7998
 Red. masses --    62.9296
 Frc consts  --     6.6279
 IR Inten    --     0.0000
 Raman Activ --   688.7239

 - Thermochemistry -
 -------------------
 Temperature   298.150 Kelvin.  Pressure   1.00000 Atm.
 Atom  1 has atomic number 29 and mass  62.92960

 Molecular mass:   125.85920 amu.
 Principal axes and moments of inertia in atomic units:
                           1         2         3
     EIGENVALUES --     0.00000 702.26764 702.26764
           X            0.00000   0.00000   1.00000
           Y            0.00000   1.00000   0.00000
           Z            1.00000   0.00000   0.00000
 THIS MOLECULE IS A PROLATE SYMMETRIC TOP.
 ROTATIONAL SYMMETRY NUMBER  2.
 WARNING-- ASSUMPTION OF CLASSICAL BEHAVIOR FOR ROTATION
           MAY CAUSE SIGNIFICANT ERROR
 ROTATIONAL TEMPERATURE (KELVIN)      0.12333
 ROTATIONAL CONSTANT (GHZ)            2.569877
 Zero-point vibrational energy       2528.9 (Joules/Mol)
                                    0.60442 (Kcal/Mol)
 WARNING-- EXPLICIT CONSIDERATION OF   1 DEGREES OF FREEDOM AS
           VIBRATIONS MAY CAUSE SIGNIFICANT ERROR
 VIBRATIONAL TEMPERATURES:    608.31
          (KELVIN)

 Zero-point correction=                           0.000963 (Hartree/Particle)
 Thermal correction to Energy=                    0.003612
 Thermal correction to Enthalpy=                  0.004556
 Thermal correction to Gibbs Free Energy=        -0.022706
 Sum of electronic and zero-point Energies=          -3240.540227
 Sum of electronic and thermal Energies=             -3240.537578
 Sum of electronic and thermal Enthalpies=           -3240.536634
 Sum of electronic and thermal Free Energies=        -3240.563896

                     E (Thermal)             CV                S
                      KCAL/MOL        CAL/MOL-KELVIN    CAL/MOL-KELVIN
 TOTAL                    2.266              6.389             57.377
 ELECTRONIC               0.000              0.000              0.000
 TRANSLATIONAL            0.889              2.981             40.404
 ROTATIONAL               0.592              1.987             16.091
 VIBRATIONAL              0.785              1.421              0.883
 VIBRATION  1             0.785              1.421              0.883
                       Q            LOG10(Q)             LN(Q)
 TOTAL BOT       0.278000D+11         10.444044         24.048301
 TOTAL V=0       0.771057D+11         10.887087         25.068444
 VIB (BOT)       0.414414D+00         -0.382566         -0.880890
 VIB (BOT)  1    0.414414D+00         -0.382566         -0.880890
 VIB (V=0)       0.114941D+01          0.060477          0.139252
 VIB (V=0)  1    0.114941D+01          0.060477          0.139252
 ELECTRONIC      0.100000D+01          0.000000          0.000000
 TRANSLATIONAL   0.554993D+08          7.744288         17.831882
 ROTATIONAL      0.120871D+04          3.082322          7.097309
 ***** Axes restored to original set *****
 -------------------------------------------------------------------
 Center     Atomic                   Forces (Hartrees/Bohr)
 Number     Number              X              Y              Z
 -------------------------------------------------------------------
    1         29           0.000000000    0.000000000   -0.081070649
    2         29           0.000000000    0.000000000    0.081070649
 -------------------------------------------------------------------
 Cartesian Forces:  Max     0.081070649 RMS     0.046806161
 FROM PUTF, CONTENTS OF FORCE
   1    0.8107064856D-01
 ------------------------------------------------------------------------
           Internal Coordinate Forces (Hartree/Bohr or radian)
 Cent Atom N1     Length/X     N2     Alpha/Y      N3      Beta/Z       J
 ------------------------------------------------------------------------
   1  Cu
   2  Cu    1   0.081071(   1)
 ------------------------------------------------------------------------
 Internal  Forces:  Max     0.081070649 RMS     0.081070649
 Force constants in Cartesian coordinates:
             1             2             3             4             5
   1 -0.172456D-01
   2  0.000000D+00 -0.171827D-01
   3  0.000000D+00  0.000000D+00  0.212856D+00
   4  0.172456D-01  0.000000D+00  0.000000D+00 -0.172456D-01
   5  0.000000D+00  0.171827D-01  0.000000D+00  0.000000D+00 -0.171827D-01
   6  0.000000D+00  0.000000D+00 -0.212856D+00  0.000000D+00  0.000000D+00
             6
   6  0.212856D+00
 FCInt: Cartesian first derivatives:
            1            2
   1 0.251911D-14-0.251911D-14
   2-0.607636D-17 0.607636D-17
   3-0.810706D-01 0.810706D-01
 FCInt: Cartesian force constants:
             1             2             3             4             5
   1 -0.172456D-01
   2 -0.206863D-30 -0.171827D-01
   3 -0.159598D-14  0.302810D-15  0.212856D+00
   4  0.172456D-01  0.228759D-30  0.161459D-14 -0.172456D-01
   5  0.221808D-30  0.171827D-01 -0.302640D-15 -0.238215D-30 -0.171827D-01
   6  0.161459D-14 -0.301235D-15 -0.212856D+00 -0.163320D-14  0.301066D-15
             6
   6  0.212856D+00
 Internal force constants:
             1
   1  0.212856D+00
 FROM PUTFF, CONTENTS OF FRCNST
             1
   1  0.212856D+00
 Force constants in internal coordinates:
             1
   1  0.212856D+00
 Final forces over variables, Energy=-3.24054119D+03:
  8.10706486D-02

 Normal termination of Gaussian 98.
