 Gaussian 98, Revision A.11.3,
 Gaussian 98:  x86-Linux-G98RevA.11.3 5-Feb-2002

 ------------------
 #P HF/STO-3G NOSYM
 ------------------

 -----
 Water
 -----
 Symbolic Z-matrix:
 Charge =  0 Multiplicity = 1

                         Z-Matrix orientation:
 ---------------------------------------------------------------------
 Center     Atomic     Atomic              Coordinates (Angstroms)
 Number     Number      Type              X           Y           Z
 ---------------------------------------------------------------------
    1          8             0        0.000000    0.000000    0.000000
    2          1             0        0.000000    0.000000    0.990000
    3          1             0        0.951649    0.000000   -0.272881
 ---------------------------------------------------------------------

 SCF Done:  E(RHF) =  -74.9643254911     A.U. after    4 cycles

 Alpha  occ. eigenvalues --  -20.24401  -1.25073  -0.60333  -0.44547  -0.38834
 Alpha virt. eigenvalues --    0.57076   0.70842

 Normal termination of Gaussian 98.
