 Output coordinates in angstroms (scale by  1.889725989 to convert to a.u.)

  No.       Tag          Charge          X              Y              Z
 ---- ---------------- ---------- -------------- -------------- --------------
    1 C                    6.0000    -1.41525332     0.23022179     0.00000000
    2 C                    6.0000     1.41525332    -0.23022179     0.00000000
    3 C                    6.0000    -0.49513316     1.31446087     0.00000000
    4 C                    6.0000     0.49513316    -1.31446087     0.00000000
    5 C                    6.0000     0.88940904     1.09094937     0.00000000
    6 C                    6.0000    -0.88940904    -1.09094937     0.00000000
    7 H                    1.0000    -0.87955120     2.34373437     0.00000000
    8 H                    1.0000     0.87955120    -2.34373437     0.00000000
    9 H                    1.0000     1.57790416     1.94500613     0.00000000
   10 H                    1.0000    -1.57790416    -1.94500613     0.00000000
   11 C                    6.0000     2.88458450    -0.52108938     0.00000000
   12 C                    6.0000    -2.88458450     0.52108938     0.00000000
   13 H                    1.0000     3.14033568    -1.59196057     0.00000000
   14 H                    1.0000    -3.14033568     1.59196057     0.00000000
   15 C                    6.0000     3.88004281     0.38225354     0.00000000
   16 C                    6.0000    -3.88004281    -0.38225354     0.00000000
   17 H                    1.0000     3.69467659     1.46243896     0.00000000
   18 H                    1.0000    -3.69467659    -1.46243896     0.00000000
   19 H                    1.0000     4.93164535     0.07110495     0.00000000
   20 H                    1.0000    -4.93164535    -0.07110495     0.00000000

         Total DFT energy =     -382.308241223603

                       DFT Final Molecular Orbital Analysis
                       ------------------------------------

 Vector    1  Occ=2.000000D+00  E=-1.002023D+01

 Vector    2  Occ=2.000000D+00  E=-1.002018D+01

 Vector    3  Occ=2.000000D+00  E=-1.000794D+01

 Vector    4  Occ=2.000000D+00  E=-1.000794D+01

 Vector    5  Occ=2.000000D+00  E=-1.000689D+01

 Vector    6  Occ=2.000000D+00  E=-1.000689D+01

 Vector    7  Occ=2.000000D+00  E=-1.000624D+01

 Vector    8  Occ=2.000000D+00  E=-1.000610D+01

 Vector    9  Occ=2.000000D+00  E=-9.992161D+00

 Vector   10  Occ=2.000000D+00  E=-9.992161D+00

 Vector   11  Occ=2.000000D+00  E=-8.094676D-01

 Vector   12  Occ=2.000000D+00  E=-7.539366D-01

 Vector   13  Occ=2.000000D+00  E=-7.178636D-01

 Vector   14  Occ=2.000000D+00  E=-6.999247D-01

 Vector   15  Occ=2.000000D+00  E=-6.673156D-01

 Vector   16  Occ=2.000000D+00  E=-5.885106D-01

 Vector   17  Occ=2.000000D+00  E=-5.591529D-01

 Vector   18  Occ=2.000000D+00  E=-5.314221D-01

 Vector   19  Occ=2.000000D+00  E=-5.099384D-01

 Vector   20  Occ=2.000000D+00  E=-4.576009D-01

 Vector   21  Occ=2.000000D+00  E=-4.391986D-01

 Vector   22  Occ=2.000000D+00  E=-4.110196D-01

 Vector   23  Occ=2.000000D+00  E=-3.976935D-01

 Vector   24  Occ=2.000000D+00  E=-3.959393D-01

 Vector   25  Occ=2.000000D+00  E=-3.744317D-01

 Vector   26  Occ=2.000000D+00  E=-3.509385D-01

 Vector   27  Occ=2.000000D+00  E=-3.470161D-01

 Vector   28  Occ=2.000000D+00  E=-3.244718D-01

 Vector   29  Occ=2.000000D+00  E=-3.110654D-01

 Vector   30  Occ=2.000000D+00  E=-2.929852D-01

 Vector   31  Occ=2.000000D+00  E=-2.874977D-01

 Vector   32  Occ=2.000000D+00  E=-2.634578D-01

 Vector   33  Occ=2.000000D+00  E=-2.123388D-01

 Vector   34  Occ=2.000000D+00  E=-1.951707D-01

 Vector   35  Occ=2.000000D+00  E=-1.529971D-01

 Vector   36  Occ=0.000000D+00  E= 3.750847D-02

 Vector   37  Occ=0.000000D+00  E= 9.011489D-02

 Vector   38  Occ=0.000000D+00  E= 1.107255D-01

 Vector   39  Occ=0.000000D+00  E= 1.821997D-01

 Vector   40  Occ=0.000000D+00  E= 2.723000D-01

 Vector   41  Occ=0.000000D+00  E= 3.324831D-01

 Vector   42  Occ=0.000000D+00  E= 3.406435D-01

 Vector   43  Occ=0.000000D+00  E= 3.795205D-01

 Vector   44  Occ=0.000000D+00  E= 3.812887D-01

 Vector   45  Occ=0.000000D+00  E= 4.103418D-01

 Vector   46  Occ=0.000000D+00  E= 4.112337D-01

 Vector   47  Occ=0.000000D+00  E= 4.258005D-01

 Vector   48  Occ=0.000000D+00  E= 4.393581D-01

 Vector   49  Occ=0.000000D+00  E= 4.537210D-01

 Vector   50  Occ=0.000000D+00  E= 4.783349D-01

 Vector   51  Occ=0.000000D+00  E= 5.255610D-01

 Vector   52  Occ=0.000000D+00  E= 5.463499D-01

 Vector   53  Occ=0.000000D+00  E= 5.764341D-01

 Vector   54  Occ=0.000000D+00  E= 5.984354D-01

 Vector   55  Occ=0.000000D+00  E= 6.248960D-01

 Vector   56  Occ=0.000000D+00  E= 6.398317D-01

 Vector   57  Occ=0.000000D+00  E= 6.828343D-01

 Vector   58  Occ=0.000000D+00  E= 7.173543D-01

 Vector   59  Occ=0.000000D+00  E= 7.790395D-01

 Vector   60  Occ=0.000000D+00  E= 7.942609D-01

     Multipole analysis of the density
     ---------------------------------

     L   x y z        total         alpha         beta         nuclear
     -   - - -        -----         -----         ----         -------
     0   0 0 0     -0.000000    -35.000000    -35.000000     70.000000

     1   1 0 0      0.000000      0.000000      0.000000      0.000000
     1   0 1 0     -0.000000     -0.000000     -0.000000      0.000000
     1   0 0 1      0.000000      0.000000      0.000000      0.000000

     2   2 0 0    -37.712987   -767.298379   -767.298379   1496.883771
     2   1 1 0     -0.067764     -5.762883     -5.762883     11.458002
     2   1 0 1     -0.000000     -0.000000     -0.000000      0.000000
     2   0 2 0    -37.347819   -141.111610   -141.111610    244.875401
     2   0 1 1      0.000000      0.000000      0.000000      0.000000

 Total times  cpu:       43.7s     wall:       44.2s
