                         Program Version 2.9.0 -  RELEASE  -
|  1> #
|  2> # ORCA Job.
|  3> #
|  4> %pointcharges "/exports/scratch/feliks_pdynamo/gdh_qcmmopt--120821163303/job.pc"
|  5> %scf AutoStart true
|  6>   end
|  7> ! ENERGY B3LYP 6-31G* PAL4 SCFCONV10
|  8> * xyz 0 2
|  9> H                  26.1310811811       32.8120685466       22.4529322558
| 10> C                  27.2009299197       32.6688030294       22.6391724934
| 11> H                  27.8069067361       33.4967145720       22.2576487958
| 12> H                  27.5285952382       31.7481758817       22.1331997472
| 13> S                  27.5122986021       32.4636000222       24.4142260059
| 14> C                  26.9500705335       28.7927291013       24.3890748203
| 15> H                  26.8277172310       29.8793340939       24.2055668067
| 16> H                  27.8835403551       28.4910538961       23.9060083849
| 17> O                  25.8481444817       28.0634969638       23.8751169938
| 18> H                  25.8781098093       28.0702789731       22.8682553679
| 19> C                  27.0428263134       28.5811847835       25.8971136366
| 20> H                  26.0771897600       28.8247511475       26.3563235911
| 21> O                  27.2702281953       27.1904682139       26.2287440448
| 22> H                  28.2121834452       26.9813880199       25.9657919515
| 23> C                  28.1323966399       29.4354737535       26.5433747528
| 24> H                  28.1544947917       29.1833694570       27.6174731129
| 25> H                  27.8592751516       30.4919597856       26.4595235624
| 26> O                  29.4035188236       29.3111528990       25.9451472740
| 27> H                  29.6431040197       28.3513633198       25.8292645931
| 28> *
| 29>
| 30>                          ****END OF INPUT****

CARTESIAN COORDINATES (ANGSTROEM)
---------------------------------
  H     26.131081   32.812069   22.452932
  C     27.200930   32.668803   22.639172
  H     27.806907   33.496715   22.257649
  H     27.528595   31.748176   22.133200
  S     27.512299   32.463600   24.414226
  C     26.950071   28.792729   24.389075
  H     26.827717   29.879334   24.205567
  H     27.883540   28.491054   23.906008
  O     25.848144   28.063497   23.875117
  H     25.878110   28.070279   22.868255
  C     27.042826   28.581185   25.897114
  H     26.077190   28.824751   26.356324
  O     27.270228   27.190468   26.228744
  H     28.212183   26.981388   25.965792
  C     28.132397   29.435474   26.543375
  H     28.154495   29.183369   27.617473
  H     27.859275   30.491960   26.459524
  O     29.403519   29.311153   25.945147
  H     29.643104   28.351363   25.829265

 Total Charge           Charge          ....    0
 Multiplicity           Mult            ....    2
 Number of Electrons    NEL             ....   75
 Basis Dimension        Dim             ....  138

ORBITAL ENERGIES
----------------
                 SPIN UP ORBITALS
  NO   OCC          E(Eh)            E(eV)
   0   1.0000     -88.877681     -2418.4847
   1   1.0000     -19.129818      -520.5488
   2   1.0000     -19.104034      -519.8472
   3   1.0000     -19.091064      -519.4943
   4   1.0000     -10.211569      -277.8709
   5   1.0000     -10.202095      -277.6131
   6   1.0000     -10.190071      -277.2859
   7   1.0000     -10.184876      -277.1446
   8   1.0000      -7.952365      -216.3948
   9   1.0000      -5.921768      -161.1395
  10   1.0000      -5.913339      -160.9101
  11   1.0000      -5.904631      -160.6732
  12   1.0000      -1.000599       -27.2277
  13   1.0000      -0.968801       -26.3624
  14   1.0000      -0.961950       -26.1760
  15   1.0000      -0.782208       -21.2850
  16   1.0000      -0.725475       -19.7412
  17   1.0000      -0.635947       -17.3050
  18   1.0000      -0.632604       -17.2140
  19   1.0000      -0.565700       -15.3935
  20   1.0000      -0.484718       -13.1899
  21   1.0000      -0.457027       -12.4363
  22   1.0000      -0.449737       -12.2380
  23   1.0000      -0.447814       -12.1856
  24   1.0000      -0.442599       -12.0437
  25   1.0000      -0.433362       -11.7924
  26   1.0000      -0.398188       -10.8353
  27   1.0000      -0.374447       -10.1892
  28   1.0000      -0.369221       -10.0470
  29   1.0000      -0.357951        -9.7403
  30   1.0000      -0.350118        -9.5272
  31   1.0000      -0.316673        -8.6171
  32   1.0000      -0.288081        -7.8391
  33   1.0000      -0.277955        -7.5635
  34   1.0000      -0.262952        -7.1553
  35   1.0000      -0.255109        -6.9419
  36   1.0000      -0.235325        -6.4035
  37   1.0000      -0.223010        -6.0684
  38   0.0000       0.039852         1.0844
  39   0.0000       0.110871         3.0169
  40   0.0000       0.129754         3.5308
  41   0.0000       0.136311         3.7092
  42   0.0000       0.150081         4.0839

                 SPIN DOWN ORBITALS
  NO   OCC          E(Eh)            E(eV)
   0   1.0000     -88.872436     -2418.3419
   1   1.0000     -19.129735      -520.5466
   2   1.0000     -19.103325      -519.8279
   3   1.0000     -19.091017      -519.4930
   4   1.0000     -10.211719      -277.8750
   5   1.0000     -10.202090      -277.6130
   6   1.0000     -10.190006      -277.2842
   7   1.0000     -10.184420      -277.1322
   8   1.0000      -7.947126      -216.2523
   9   1.0000      -5.910089      -160.8217
  10   1.0000      -5.905014      -160.6836
  11   1.0000      -5.901421      -160.5858
  12   1.0000      -1.000297       -27.2195
  13   1.0000      -0.967479       -26.3264
  14   1.0000      -0.961687       -26.1688
  15   1.0000      -0.766463       -20.8565
  16   1.0000      -0.724968       -19.7274
  17   1.0000      -0.635096       -17.2818
  18   1.0000      -0.607323       -16.5261
  19   1.0000      -0.565021       -15.3750
  20   1.0000      -0.484462       -13.1829
  21   1.0000      -0.456696       -12.4273
  22   1.0000      -0.448987       -12.2175
  23   1.0000      -0.445691       -12.1279
  24   1.0000      -0.440795       -11.9946
  25   1.0000      -0.421390       -11.4666
  26   1.0000      -0.396652       -10.7934
  27   1.0000      -0.371557       -10.1106
  28   1.0000      -0.364559        -9.9202
  29   1.0000      -0.353968        -9.6320
  30   1.0000      -0.349491        -9.5101
  31   1.0000      -0.315887        -8.5957
  32   1.0000      -0.281948        -7.6722
  33   1.0000      -0.262640        -7.1468
  34   1.0000      -0.244474        -6.6525
  35   1.0000      -0.232171        -6.3177
  36   1.0000      -0.222726        -6.0607
  37   0.0000      -0.153436        -4.1752
  38   0.0000       0.049053         1.3348
  39   0.0000       0.113357         3.0846
  40   0.0000       0.130751         3.5579
  41   0.0000       0.137638         3.7453

MULLIKEN ATOMIC CHARGES AND SPIN POPULATIONS
--------------------------------------------
   0 H :    0.126447    0.002622
   1 C :   -0.613018   -0.029484
   2 H :    0.189146    0.015452
   3 H :    0.320041    0.037434
   4 S :   -0.068218    0.923615
   5 C :   -0.009025    0.024579
   6 H :    0.117123   -0.007037
   7 H :    0.208978    0.001636
   8 O :   -0.796675    0.026121
   9 H :    0.551268   -0.000703
  10 C :    0.093208    0.000207
  11 H :    0.143254    0.000054
  12 O :   -0.831396    0.002669
  13 H :    0.519541   -0.000098
  14 C :   -0.016830    0.002812
  15 H :    0.111648    0.000054
  16 H :    0.137839   -0.001554
  17 O :   -0.692388    0.001669
  18 H :    0.509054   -0.000048
Sum of atomic charges         :   -0.0000000

LOEWDIN ATOMIC CHARGES AND SPIN POPULATIONS
-------------------------------------------
   0 H :    0.109834    0.002482
   1 C :   -0.480750   -0.004932
   2 H :    0.144867    0.014674
   3 H :    0.219485    0.034736
   4 S :   -0.045542    0.896616
   5 C :   -0.111878    0.021378
   6 H :    0.113258    0.001684
   7 H :    0.152248    0.001201
   8 O :   -0.500877    0.025593
   9 H :    0.412007   -0.000534
  10 C :   -0.043762    0.000287
  11 H :    0.127572    0.000030
  12 O :   -0.528491    0.002630
  13 H :    0.383448   -0.000039
  14 C :   -0.114098    0.002650
  15 H :    0.100120    0.000028
  16 H :    0.121108   -0.000069
  17 O :   -0.437476    0.001596
  18 H :    0.378927   -0.000010

  Mayer bond orders larger than 0.1
B(  0-H ,  1-C ) :   0.9496 B(  1-C ,  2-H ) :   0.9221 B(  1-C ,  3-H ) :   0.8712
B(  1-C ,  4-S ) :   1.0296 B(  5-C ,  6-H ) :   0.8970 B(  5-C ,  7-H ) :   0.9053
B(  5-C ,  8-O ) :   0.9396 B(  5-C , 10-C ) :   0.9822 B(  8-O ,  9-H ) :   0.6659
B( 10-C , 11-H ) :   0.9212 B( 10-C , 12-O ) :   0.8849 B( 10-C , 14-C ) :   0.9780
B( 12-O , 13-H ) :   0.6843 B( 14-C , 15-H ) :   0.9230 B( 14-C , 16-H ) :   0.9195
B( 14-C , 17-O ) :   1.0013 B( 17-O , 18-H ) :   0.6919

FINAL SINGLE POINT ENERGY     -782.704945759

DIPOLE MOMENT
-------------
                                X             Y             Z
Electronic contribution:      0.99573       0.10483       1.57469
Nuclear contribution   :      0.11583      -0.53590      -3.61720
                        -----------------------------------------
Total Dipole Moment    :      1.11156      -0.43107      -2.04250
                        -----------------------------------------
Magnitude (a.u.)       :      2.36500
Magnitude (Debye)      :      6.01135

                             ****ORCA TERMINATED NORMALLY****
TOTAL RUN TIME: 0 days 0 hours 0 minutes 18 seconds 452 msec
