                         Program Version 2.9.1 -  RELEASE  -
|  1> ! B3LYP/G cc-pVDZ NormalPrint
|  2> * xyz 0 1
|  3> O     0.5541    -0.7168     2.5451
|  4> O    -0.4144    -0.6445     1.7332
|  5> O    -0.5393     0.4071     1.0372
|  6> O     2.5562    -2.3144     1.1906
|  7> H     2.5049    -1.4849     1.7839
|  8> H     3.4118    -2.6741     1.5288
|  9> O     1.9395    -1.3655    -1.0638
| 10> H     2.7195    -0.8391    -1.0652
| 11> H     2.0366    -1.8494    -0.2154
| 12> *
| 13>
| 14>                          ****END OF INPUT****

CARTESIAN COORDINATES (ANGSTROEM)
---------------------------------
  O      0.554100   -0.716800    2.545100
  O     -0.414400   -0.644500    1.733200
  O     -0.539300    0.407100    1.037200
  O      2.556200   -2.314400    1.190600
  H      2.504900   -1.484900    1.783900
  H      3.411800   -2.674100    1.528800
  O      1.939500   -1.365500   -1.063800
  H      2.719500   -0.839100   -1.065200
  H      2.036600   -1.849400   -0.215400

 Total Charge           Charge          ....    0
 Multiplicity           Mult            ....    1
 Number of Electrons    NEL             ....   44
 Basis Dimension        Dim             ....   90

ORBITAL ENERGIES
----------------

  NO   OCC          E(Eh)            E(eV)
   0   2.0000     -19.434061      -528.8277
   1   2.0000     -19.261078      -524.1206
   2   2.0000     -19.257501      -524.0232
   3   2.0000     -19.178549      -521.8749
   4   2.0000     -19.071464      -518.9609
   5   2.0000      -1.369889       -37.2766
   6   2.0000      -1.102060       -29.9886
   7   2.0000      -1.032780       -28.1034
   8   2.0000      -0.950548       -25.8657
   9   2.0000      -0.784202       -21.3392
  10   2.0000      -0.601539       -16.3687
  11   2.0000      -0.594378       -16.1739
  12   2.0000      -0.590355       -16.0644
  13   2.0000      -0.533717       -14.5232
  14   2.0000      -0.489608       -13.3229
  15   2.0000      -0.414929       -11.2908
  16   2.0000      -0.364939        -9.9305
  17   2.0000      -0.355418        -9.6714
  18   2.0000      -0.347563        -9.4577
  19   2.0000      -0.336641        -9.1605
  20   2.0000      -0.301042        -8.1918
  21   2.0000      -0.247458        -6.7337
  22   0.0000      -0.188688        -5.1345
  23   0.0000       0.018251         0.4966
  24   0.0000       0.069227         1.8838
  25   0.0000       0.100405         2.7321
  26   0.0000       0.116050         3.1579

MULLIKEN ATOMIC CHARGES
-----------------------
   0 O :   -0.126909
   1 O :    0.218847
   2 O :   -0.074750
   3 O :   -0.243655
   4 H :    0.156857
   5 H :    0.152308
   6 O :   -0.310503
   7 H :    0.088167
   8 H :    0.139639
Sum of atomic charges:   -0.0000000

LOEWDIN ATOMIC CHARGES
----------------------
   0 O :   -0.149750
   1 O :    0.282292
   2 O :   -0.107955
   3 O :   -0.026804
   4 H :    0.069668
   5 H :    0.068649
   6 O :   -0.113393
   7 H :    0.006256
   8 H :   -0.028963

  Mayer bond orders larger than 0.1
B(  0-O ,  1-O ) :   1.3123 B(  0-O ,  2-O ) :   0.5200 B(  1-O ,  2-O ) :   1.3602
B(  3-O ,  4-H ) :   0.9783 B(  3-O ,  5-H ) :   1.0006 B(  3-O ,  8-H ) :   0.1487
B(  6-O ,  7-H ) :   1.0512 B(  6-O ,  8-H ) :   0.9568

FINAL SINGLE POINT ENERGY      -378.272647476524

DIPOLE MOMENT
-------------
                                X             Y             Z
Electronic contribution:     -5.73142       2.84111       3.40499
Nuclear contribution   :      6.59917      -2.80193      -2.07162
                        -----------------------------------------
Total Dipole Moment    :      0.86775       0.03918       1.33337
                        -----------------------------------------
Magnitude (a.u.)       :      1.59135
Magnitude (Debye)      :      4.04489

                             ****ORCA TERMINATED NORMALLY****
TOTAL RUN TIME: 0 days 0 hours 0 minutes 19 seconds 138 msec
