 Gaussian 09, Revision A.02,

 ----------
 #T PM6 OPT
 ----------
 ------------
 C#CC#CC#CC#C
 ------------
 Symbolic Z-matrix:
 Charge =  0 Multiplicity = 1

 SCF Done:  E(RPM6) =  0.419028964050     A.U. after   11 cycles
 SCF Done:  E(RPM6) =  0.367082873110     A.U. after   11 cycles
 SCF Done:  E(RPM6) =  0.349322555179     A.U. after   14 cycles
 SCF Done:  E(RPM6) =  0.349249040747     A.U. after   13 cycles
 SCF Done:  E(RPM6) =  0.349242889561     A.U. after   13 cycles
 Optimization completed.
    -- Stationary point found.
 Normal termination of Gaussian 09 at Thu Oct  8 18:37:38 2009.
 Gaussian 09:  EM64L-G09RevA.02 11-Jun-2009

 ---------------------
 # ZINDO Geom=AllCheck
 ---------------------

 C#CC#CC#CC#C
 ------------
 Redundant internal coordinates taken from checkpoint file:
 534.chk
 Charge =  0 Multiplicity = 1

                         Standard orientation:
 ---------------------------------------------------------------------
 Center     Atomic      Atomic             Coordinates (Angstroms)
 Number     Number       Type             X           Y           Z
 ---------------------------------------------------------------------
      1          6           0        0.000000    0.000000   -4.467357
      2          6           0        0.000000    0.000000   -3.258284
      3          6           0        0.000000    0.000000   -1.894759
      4          6           0        0.000000    0.000000   -0.679513
      5          6           0        0.000000    0.000000    0.679597
      6          6           0        0.000000    0.000000    1.894834
      7          6           0        0.000000    0.000000    3.258216
      8          6           0        0.000000    0.000000    4.467279
      9          1           0        0.000000    0.000000   -5.501775
     10          1           0        0.000000    0.000000    5.501696
 ---------------------------------------------------------------------

 SCF Done:  E(RZINDO/S) =  -44.3917723007     A.U. after   10 cycles

 Excitation energies and oscillator strengths:

 Excited state symmetry could not be determined.
 Excited State   1:      Singlet-?Sym    2.5938 eV  478.01 nm  f=0.0000  <S**2>=0.000
      14 -> 22         0.12546
      15 -> 21        -0.12546
      16 -> 18         0.41084
      16 -> 19         0.21816
      17 -> 18        -0.21816
      17 -> 19         0.41084
 This state for optimization and/or second-order correction.
 Copying the excited state density for this state as the 1-particle RhoCI density.

 Excited state symmetry could not be determined.
 Excited State   2:      Singlet-?Sym    2.9125 eV  425.70 nm  f=0.0000  <S**2>=0.000
      16 -> 18        -0.46130
      16 -> 19        -0.10049
      17 -> 18        -0.10049
      17 -> 19         0.46130

 Excited state symmetry could not be determined.
 Excited State   3:      Singlet-?Sym    2.9125 eV  425.70 nm  f=0.0000  <S**2>=0.000
      16 -> 18        -0.10049
      16 -> 19         0.46130
      17 -> 18         0.46130
      17 -> 19         0.10049

 The electronic state is 1-SG.
 Alpha  occ. eigenvalues --   -1.33556  -1.29352  -1.22610  -1.13747  -0.99638
 Alpha  occ. eigenvalues --   -0.87514  -0.76070  -0.67140  -0.61828  -0.51146
 Alpha  occ. eigenvalues --   -0.51146  -0.45841  -0.45841  -0.38349  -0.38349
 Alpha  occ. eigenvalues --   -0.30385  -0.30385
 Alpha virt. eigenvalues --   -0.00734  -0.00734   0.05561   0.05783   0.05783
 Alpha virt. eigenvalues --    0.09177   0.10993   0.10993   0.13731   0.14083
 Alpha virt. eigenvalues --    0.14083   0.18677   0.23885   0.31994   0.41301

 Mulliken atomic charges:
              1
     1  C   -0.105767
     2  C   -0.001743
     3  C   -0.001652
     4  C   -0.003219
     5  C   -0.003227
     6  C   -0.001637
     7  C   -0.001730
     8  C   -0.105773
     9  H    0.112377
    10  H    0.112373
 Sum of Mulliken atomic charges =   0.00000

 Dipole moment (field-independent basis, Debye):
    X=              0.0000    Y=              0.0000    Z=              0.0001  Tot=              0.0001
 N-N= 6.982176761621D+01 E-N= 0.000000000000D+00  KE=-2.039690942568D+02
 1\1\GINC-R2I2N12\SP\RZINDO\STO-3G\C8H2\NOBOYLE\08-Oct-2009\0\\# ZINDO
 Geom=AllCheck\\C#CC#CC#CC#C\\0,1\C,0,0.9651342523,0.,0.\C,0,2.17420726
 44,0.,0.\C,0,3.5377327897,0.,0.\C,0,4.7529787169,0.,0.\C,0,6.112088196
 4,0.,0.\C,0,7.3273251544,0.,0.\C,0,8.6907079357,0.,0.\C,0,9.8997710045
 ,0.,0.\H,0,-0.0692831445,0.,0.\H,0,10.9341878301,0.,0.\\Version=EM64L-
 G09RevA.02\State=1-SG\HF=-44.3917723\RMSD=5.763e-09\PG=C*V [C*(H1C1C1C
 1C1C1C1C1C1H1)]\\@

 Normal termination of Gaussian 09 at Thu Oct  8 18:37:41 2009.
