 Gaussian 09, Revision A.02,
 Gaussian 09:  EM64L-G09RevA.02 11-Jun-2009

 -------------------------------------------------------------------
 # SCRF=(Solvent=Water) geom=check CCSD(T,T1Diag,Conver=6)/6-31+G(d)
 -------------------------------------------------------------------

 Single point energy of TS with coordinates from dEaa12_TS.chk
 -------------------------------------------------------------
 Redundant internal coordinates taken from checkpoint file:
 dEaa12_TS_CCSDT_med.chk
 Charge =  0 Multiplicity = 2

                         Standard orientation:
 ---------------------------------------------------------------------
 Center     Atomic      Atomic             Coordinates (Angstroms)
 Number     Number       Type             X           Y           Z
 ---------------------------------------------------------------------
      1          7           0       -0.202261   -1.245399    0.575116
      2          1           0       -0.876827   -0.296895    1.185598
      3          1           0        0.710878   -1.671800    0.727244
      4          8           0       -0.306317   -1.085421   -0.724649
      5          8           0       -1.369517   -0.256729   -1.080972
      6          8           0        0.577511    1.665405   -0.393048
      7          1           0       -0.022390    1.260280   -1.036817
      8          1           0        0.878409    2.489554   -0.784784
      9          1           0        3.387520   -0.112334    0.019544
     10          8           0        2.508124   -0.321692    0.341025
     11          1           0        1.940285    0.408338    0.047599
     12          1           0       -1.117677    1.418517    1.240218
     13          8           0       -1.632766    0.603005    1.166291
     14          1           0       -1.700650    0.385582    0.106403
 ---------------------------------------------------------------------

 SCF Done:  E(UHF) =  -433.181903831     A.U. after   23 cycles
 E2 =    -0.1126827706D+01 EUMP2 =    -0.43430873153738D+03
 CCSD(T)= -0.43437573219D+03

 The electronic state is 2-A.
 Alpha  occ. eigenvalues --  -20.70578 -20.61934 -20.59061 -20.58336 -20.57019
 Alpha  occ. eigenvalues --  -15.68805  -1.56953  -1.40765  -1.36840  -1.34527
 Alpha  occ. eigenvalues --   -1.27061  -1.04415  -0.80962  -0.76748  -0.75358
 Alpha  occ. eigenvalues --   -0.73152  -0.71892  -0.71535  -0.63228  -0.61489
 Alpha  occ. eigenvalues --   -0.60399  -0.58286  -0.53420  -0.52139  -0.50857
 Alpha  occ. eigenvalues --   -0.50377  -0.45931  -0.41561
 Alpha virt. eigenvalues --    0.11831   0.13619   0.14328   0.15467   0.18165
 Alpha virt. eigenvalues --    0.18531   0.20589   0.22604   0.22973   0.26355
 Alpha virt. eigenvalues --    0.27447   0.28688   0.29093   0.30646   0.31302

  Beta  occ. eigenvalues --  -20.68932 -20.61940 -20.59064 -20.58374 -20.57016
  Beta  occ. eigenvalues --  -15.65835  -1.53234  -1.40656  -1.36841  -1.34513
  Beta  occ. eigenvalues --   -1.24178  -0.97648  -0.79893  -0.74571  -0.74022
  Beta  occ. eigenvalues --   -0.72310  -0.71383  -0.63612  -0.61272  -0.60891
  Beta  occ. eigenvalues --   -0.59640  -0.57941  -0.52204  -0.50505  -0.49727
  Beta  occ. eigenvalues --   -0.45306  -0.42337
  Beta virt. eigenvalues --    0.07969   0.11965   0.14235   0.14708   0.16329
  Beta virt. eigenvalues --    0.18337   0.18884   0.21076   0.22752   0.24354
  Beta virt. eigenvalues --    0.26437   0.27829   0.28857   0.29210   0.31259

 Mulliken atomic charges:
              1
     1  N   -0.466222
     2  H    0.639327
     3  H    0.480059
     4  O    0.004489
     5  O   -0.704050
     6  O   -1.193036
     7  H    0.601794
     8  H    0.557662
     9  H    0.540926
    10  O   -1.157909
    11  H    0.616924
    12  H    0.602166
    13  O   -1.187309
    14  H    0.665179
 Sum of Mulliken atomic charges =   0.00000

 Dipole moment (field-independent basis, Debye):
    X=              3.4978    Y=              3.9119    Z=              1.2178  Tot=              5.3871
 Quadrupole moment (field-independent basis, Debye-Ang):
   XX=            -38.2499   YY=            -28.2218   ZZ=            -40.4855
   XY=              1.1465   XZ=             -5.1235   YZ=             -5.6840

 CCSD(T)=-434.3757322\S2=0.767866\S2-1=0.754757\S2A=0.750232\RMSD=4.193
 Normal termination of Gaussian 09 at Fri Sep  7 12:55:01 2012.
