 Gaussian 09, Revision A.02,
 Gaussian 09:  EM64L-G09RevA.02 11-Jun-2009

 ------------
 #p HF/DGDZVP
 ------------

 -------------------------------
 run that reproduces bug 1756789
 -------------------------------
 Symbolic Z-matrix:
 Charge =  0 Multiplicity = 1

                         Standard orientation:
 ---------------------------------------------------------------------
 Center     Atomic      Atomic             Coordinates (Angstroms)
 Number     Number       Type             X           Y           Z
 ---------------------------------------------------------------------
      1          6           0       -0.071076    1.049323    0.000000
      2          6           0        1.141359    0.349323    0.000000
      3          6           0        2.353795    1.049323    0.000000
      4          6           0        2.353795    2.449323    0.000000
      5          6           0        1.141359    3.149323    0.000000
      6          6           0       -0.071076    2.449324    0.000000
      7         53           0        1.141359   -1.742677    0.000000
      8          1           0        3.296897    0.504823    0.000000
      9          1           0        3.296897    2.993823    0.000000
     10          1           0        1.141359    4.238323    0.000000
     11          1           0       -1.014178    2.993824    0.000000
     12         53           0       -2.043433    0.351989    0.000000
 ---------------------------------------------------------------------

 SCF Done:  E(RHF) =  -14063.7511234     A.U. after   14 cycles

 The electronic state is 1-A'.
 Alpha  occ. eigenvalues -- ********************-180.91354-180.91341-169.70093
 Alpha  occ. eigenvalues -- -169.70080-169.70019-169.70016-169.70005-169.70001
 Alpha  occ. eigenvalues --  -37.91428 -37.91424 -33.12574 -33.12570 -33.12186
 Alpha  occ. eigenvalues --  -33.12181 -33.12175 -33.12167 -24.29816 -24.29815
 Alpha  occ. eigenvalues --  -24.29680 -24.29679 -24.29666 -24.29662 -24.29280
 Alpha  occ. eigenvalues --  -24.29280 -24.29270 -24.29270 -11.31429 -11.31089
 Alpha  occ. eigenvalues --  -11.27422 -11.27015 -11.26880 -11.26681  -7.23295
 Alpha  occ. eigenvalues --   -7.23280  -5.47382  -5.47355  -5.46169  -5.46161
 Alpha  occ. eigenvalues --   -5.46159  -5.46148  -2.40134  -2.40104  -2.39520
 Alpha  occ. eigenvalues --   -2.39506  -2.39494  -2.39479  -2.38143  -2.38135
 Alpha  occ. eigenvalues --   -2.38134  -2.38129  -1.18819  -1.05633  -1.05348
 Alpha  occ. eigenvalues --   -0.89840  -0.87452  -0.83667  -0.78779  -0.69874
 Alpha  occ. eigenvalues --   -0.66512  -0.64530  -0.59127  -0.56256  -0.54905
 Alpha  occ. eigenvalues --   -0.49914  -0.46694  -0.41962  -0.40998  -0.39804
 Alpha  occ. eigenvalues --   -0.35946  -0.34207  -0.33117
 Alpha virt. eigenvalues --    0.07248   0.08611   0.08969   0.11622   0.24847
 Alpha virt. eigenvalues --    0.25381   0.25831   0.26189   0.26730   0.27748
 Alpha virt. eigenvalues --    0.29150   0.29572   0.29966   0.31618   0.33665

 Mulliken atomic charges:
              1
     1  C   -0.000033
     2  C   -0.066280
     3  C   -0.224238
     4  C   -0.238253
     5  C   -0.240491
     6  C   -0.184333
     7  I   -0.033856
     8  H    0.262692
     9  H    0.247787
    10  H    0.246232
    11  H    0.263231
    12  I   -0.032459
 Sum of Mulliken atomic charges =   0.00000

 Dipole moment (field-independent basis, Debye):
    X=              1.3397    Y=              2.2839    Z=              0.0000  Tot=              2.6479
 Quadrupole moment (field-independent basis, Debye-Ang):
   XX=            -86.5497   YY=            -83.5323   ZZ=            -98.7694
   XY=              3.6977   XZ=              0.0000   YZ=              0.0000

 Normal termination of Gaussian 09 at Sun Jul 17 20:03:22 2011.
