 Gaussian 09, Revision A.02,
 Gaussian 09:  IA32L-G09RevA.02 11-Jun-2009

 ---------------------------------------------------------------------
 #t b3lyp/sto-3g guess=read geom=allcheck pop=full iop(3/33=1,3/36=-1)
 ---------------------------------------------------------------------

 DVB scan dihedral
 -----------------
 Redundant internal coordinates taken from checkpoint file:
 PhCCCC.chk
 Charge =  0 Multiplicity = 1

                         Standard orientation:
 ---------------------------------------------------------------------
 Center     Atomic      Atomic             Coordinates (Angstroms)
 Number     Number       Type             X           Y           Z
 ---------------------------------------------------------------------
      1          6           0       -1.415124    0.241742    0.000032
      2          6           0       -0.899583   -1.082631   -0.000096
      3          6           0        0.483014   -1.316217   -0.000054
      4          6           0        1.415105   -0.241710   -0.000069
      5          6           0        0.899542    1.082680   -0.000099
      6          1           0       -1.589966   -1.935934   -0.000050
      7          1           0        0.859365   -2.348403   -0.000031
      8          1           0        1.589962    1.935950   -0.000115
      9          6           0        2.881177   -0.547093    0.000067
     10          6           0        3.886075    0.345812    0.000070
     11          1           0        3.715242    1.428379   -0.000035
     12          1           0        3.122423   -1.620749    0.000135
     13          1           0        4.933519    0.022440    0.000276
     14          6           0       -2.881204    0.547115    0.000066
     15          1           0       -3.122571    1.620751    0.000143
     16          6           0       -3.885988   -0.345916    0.000049
     17          1           0       -3.715016   -1.428478    0.000042
     18          1           0       -4.933482   -0.022690    0.000116
     19          6           0       -0.483023    1.316268   -0.000031
     20          1           0       -0.859431    2.348435   -0.000085
 ---------------------------------------------------------------------

 SCF Done:  E(RB3LYP) =  -382.308259727     A.U. after    1 cycles

 The electronic state is 1-A.
 Alpha  occ. eigenvalues --  -10.02022 -10.02017 -10.00811 -10.00811 -10.00679
 Alpha  occ. eigenvalues --  -10.00679 -10.00606 -10.00592  -9.99233  -9.99233
 Alpha  occ. eigenvalues --   -0.80950  -0.75399  -0.71796  -0.69978  -0.66751
 Alpha  occ. eigenvalues --   -0.58870  -0.55893  -0.53167  -0.51017  -0.45744
 Alpha  occ. eigenvalues --   -0.43936  -0.41061  -0.39795  -0.39606  -0.37398
 Alpha  occ. eigenvalues --   -0.35115  -0.34729  -0.32450  -0.31125  -0.29280
 Alpha  occ. eigenvalues --   -0.28745  -0.26355  -0.21244  -0.19505  -0.15308
 Alpha virt. eigenvalues --    0.03741   0.09036   0.11061   0.18221   0.27252
 Alpha virt. eigenvalues --    0.33224   0.34073   0.37940   0.38146   0.41098
 Alpha virt. eigenvalues --    0.41197   0.42673   0.43964   0.45276   0.47824

 Mulliken atomic charges:
              1
     1  C   -0.004510
     2  C   -0.077146
     3  C   -0.076612
     4  C   -0.004513
     5  C   -0.077146
     6  H    0.079221
     7  H    0.077697
     8  H    0.079222
     9  C   -0.076378
    10  C   -0.154825
    11  H    0.076330
    12  H    0.076876
    13  H    0.079347
    14  C   -0.076379
    15  H    0.076879
    16  C   -0.154817
    17  H    0.076328
    18  H    0.079343
    19  C   -0.076615
    20  H    0.077699
 Sum of Mulliken atomic charges =   0.00000

 Normal termination of Gaussian 09 at Fri Jan 31 16:51:20 2014.
