 Gaussian 09, Revision D.01,
 Gaussian 09:  ES64L-G09RevD.01 24-Apr-2013

 ------------------------------------------------------------
 #p gfprint pop=full HF/6-31G(d) freq=projected symmetry=none
 ------------------------------------------------------------

 ------------------------------
 Gaussian input prepared by ASE
 ------------------------------
 Symbolic Z-matrix:
 Charge = -1 Multiplicity = 1

                          Input orientation:
 ---------------------------------------------------------------------
 Center     Atomic      Atomic             Coordinates (Angstroms)
 Number     Number       Type             X           Y           Z
 ---------------------------------------------------------------------
      1          6           0        0.027792    0.024268   -0.042053
      2          1           0        0.464553   -0.923210   -0.237637
      3          1           0        0.464653    0.667602    0.680443
      4          1           0       -0.915877    0.267248   -0.462975
      5         17           0        1.178751    1.029248   -1.783568
      6         17           0       -1.188671   -1.037911    1.798579
 ---------------------------------------------------------------------

 SCF Done:  E(RHF) =  -958.613979345     A.U. after   12 cycles

 Alpha  occ. eigenvalues -- -104.58459-104.55612 -11.18119 -10.31570 -10.28678
 Alpha  occ. eigenvalues --   -7.78419  -7.78282  -7.78282  -7.75511  -7.75416
 Alpha  occ. eigenvalues --   -7.75416  -0.87001  -0.81461  -0.76547  -0.49266
 Alpha  occ. eigenvalues --   -0.49266  -0.28495  -0.23695  -0.23695  -0.21124
 Alpha  occ. eigenvalues --   -0.21124  -0.19096
 Alpha virt. eigenvalues --    0.28200   0.38177   0.45102   0.45102   0.75055
 Alpha virt. eigenvalues --    0.76924   0.81250   0.81250   0.84208   0.84208
 Alpha virt. eigenvalues --    0.88603   0.91653   0.91653   0.95482   1.13094

 Mulliken charges:
               1
     1  C   -0.297244
     2  H    0.261157
     3  H    0.261157
     4  H    0.261157
     5  Cl  -0.692122
     6  Cl  -0.794106
 Sum of Mulliken charges =  -1.00000

 Dipole moment (field-independent basis, Debye):
    X=              0.5841    Y=              0.5101    Z=             -0.8839  Tot=              1.1759
 Quadrupole moment (field-independent basis, Debye-Ang):
   XX=            -46.3279   YY=            -43.8278   ZZ=            -59.8977
   XY=             -9.1888   XZ=             15.9231   YZ=             13.9036

  Exact polarizability:  35.901  12.724  32.439 -22.049 -19.253  54.691
 Approx polarizability:  27.953   7.584  25.889 -13.143 -11.476  39.153

                      1                      2                      3
                      A                      A                      A
 Frequencies --    203.4068               203.4068               213.7012
 Red. masses --      4.3259                 4.3259                34.5521
 Frc consts  --      0.1055                 0.1055                 0.9297
 IR Inten    --     27.4650                27.4650                 0.0152
 Raman Activ --      0.1140                 0.1140                 5.5687

                      4                      5                      6
                      A                      A                      A
 Frequencies --   1009.7256              1009.7257              1230.3320
 Red. masses --      1.0150                 1.0150                 1.0489
 Frc consts  --      0.6097                 0.6097                 0.9355
 IR Inten    --      0.0045                 0.0045               269.2931
 Raman Activ --      7.6973                 7.6973                 0.8094

                      7                      8                      9
                      A                      A                      A
 Frequencies --   1549.2025              1549.2025              3421.8472
 Red. masses --      1.1010                 1.1010                 1.0081
 Frc consts  --      1.5569                 1.5569                 6.9549
 IR Inten    --      5.1412                 5.1412                 0.4389
 Raman Activ --      2.9192                 2.9192                94.6059

                     10                     11
                      A                      A
 Frequencies --   3632.4813              3632.4814
 Red. masses --      1.1245                 1.1245
 Frc consts  --      8.7418                 8.7418
 IR Inten    --      5.3260                 5.3260
 Raman Activ --     21.6895                21.6895

 - Thermochemistry -
 -------------------
 Temperature   298.150 Kelvin.  Pressure   1.00000 Atm.
 Atom     1 has atomic number  6 and mass  12.00000

 Molecular mass:    84.96118 amu.
 Principal axes and moments of inertia in atomic units:
                           1         2         3
     Eigenvalues --    12.141441424.173861424.17386
           X           -0.49679   0.80706   0.31915
           Y           -0.43378  -0.54942   0.71413
           Z            0.75169   0.21633   0.62303
 This molecule is a prolate symmetric top.
 Rotational symmetry number  1.
 Rotational temperatures (Kelvin)      7.13373     0.06082     0.06082
 Rotational constants (GHZ):         148.64309     1.26722     1.26722
 Zero-point vibrational energy     105603.4 (Joules/Mol)
                                   25.23982 (Kcal/Mol)
 Warning -- explicit consideration of   3 degrees of freedom as
           vibrations may cause significant error
 Vibrational temperatures:    292.66   292.66   307.47  1452.77  1452.77
          (Kelvin)           1770.17  2228.95  2228.95  4923.27  5226.32
                             5226.32

 Zero-point correction=                           0.040222 (Hartree/Particle)
 Thermal correction to Energy=                    0.044799
 Thermal correction to Enthalpy=                  0.045743
 Thermal correction to Gibbs Free Energy=         0.012295
 Sum of electronic and zero-point Energies=           -958.573757
 Sum of electronic and thermal Energies=              -958.569180
 Sum of electronic and thermal Enthalpies=            -958.568236
 Sum of electronic and thermal Free Energies=         -958.601684

                     E (Thermal)             CV                S
                      KCal/Mol        Cal/Mol-Kelvin    Cal/Mol-Kelvin
 Total                   28.112             12.497             70.397
 Electronic               0.000              0.000              0.000
 Translational            0.889              2.981             39.232
 Rotational               0.889              2.981             24.713
 Vibrational             26.334              6.535              6.451
 Vibration     1          0.639              1.835              2.102
 Vibration     2          0.639              1.835              2.102
 Vibration     3          0.644              1.820              2.012

 Normal termination of Gaussian 09 at Wed Jul  3 16:27:50 2013.
