 Gaussian 09, Revision A.02,
 Gaussian 09:  EM64L-G09RevA.02 11-Jun-2009

 ----------------------------------------------
 # td=(nstates=10) b3lyp geom=connectivity tzvp
 ----------------------------------------------

 ----------
 opt_td_g09
 ----------
 Symbolic Z-matrix:
 Charge =  0 Multiplicity = 1

                         Standard orientation:
 ---------------------------------------------------------------------
 Center     Atomic      Atomic             Coordinates (Angstroms)
 Number     Number       Type             X           Y           Z
 ---------------------------------------------------------------------
      1          1           0       -0.736370   -1.895712    0.846125
      2          6           0       -1.299332   -1.049615    0.463457
      3          6           0       -2.797229    1.078409   -0.521484
      4          6           0       -0.674020   -0.119827   -0.382678
      5          6           0       -2.642676   -0.916319    0.818100
      6          6           0       -3.398410    0.150003    0.328991
      7          6           0       -1.453339    0.939435   -0.871432
      8          1           0       -3.100072   -1.652139    1.474882
      9          1           0       -4.445316    0.252012    0.602258
     10          1           0       -0.998403    1.666105   -1.541065
     11          1           0       -3.374516    1.909572   -0.918692
     12          6           0        0.790131   -0.248599   -0.798463
     13          6           0        1.814268    0.313427    0.262989
     14          6           0        3.243988    0.234334   -0.314169
     15          1           0        3.303779    0.711631   -1.300638
     16          1           0        3.594387   -0.798041   -0.416165
     17          1           0        3.948338    0.752917    0.347396
     18          6           0        1.104613   -1.682478   -1.273239
     19          1           0        0.358128   -2.007169   -2.005899
     20          1           0        1.094548   -2.408287   -0.453018
     21          1           0        2.086355   -1.739020   -1.752440
     22          6           0        1.497575    1.796698    0.543721
     23          1           0        1.547434    2.394652   -0.375286
     24          1           0        2.224901    2.214899    1.250096
     25          1           0        0.499668    1.925599    0.973933
     26          1           0        0.913915    0.401733   -1.676700
     27          6           0        1.774555   -0.458537    1.596180
     28          1           0        0.798808   -0.373259    2.085137
     29          1           0        2.525728   -0.053536    2.285319
     30          1           0        1.997941   -1.523548    1.462902
 ---------------------------------------------------------------------

 SCF Done:  E(RB3LYP) =  -468.284606715     A.U. after   14 cycles

 Excitation energies and oscillator strengths:

 Excited State   1:      Singlet-A      5.2862 eV  234.54 nm  f=0.0008  <S**2>=0.000
      44 -> 46        -0.24906
      44 -> 47        -0.38788
      45 -> 46         0.45531
      45 -> 47        -0.28080
 This state for optimization and/or second-order correction.
 Copying the excited state density for this state as the 1-particle RhoCI density.

 Excited State   2:      Singlet-A      5.9083 eV  209.85 nm  f=0.0375  <S**2>=0.000
      44 -> 46         0.34810
      44 -> 47        -0.20758
      45 -> 46         0.31157
      45 -> 47         0.48322

 Excited State   3:      Singlet-A      6.6914 eV  185.29 nm  f=0.1002  <S**2>=0.000
      44 -> 46         0.21109
      44 -> 47         0.21517
      45 -> 46         0.19586
      45 -> 47        -0.17658
      45 -> 48         0.56218

 Excited State   4:      Singlet-A      6.7755 eV  182.99 nm  f=0.3653  <S**2>=0.000
      42 -> 46         0.11245
      44 -> 47         0.47587
      45 -> 46         0.37423
      45 -> 48        -0.31265

 Excited State   5:      Singlet-A      6.7883 eV  182.64 nm  f=0.6404  <S**2>=0.000
      42 -> 47        -0.10558
      44 -> 46         0.49361
      44 -> 47        -0.10207
      45 -> 47        -0.36541
      45 -> 48        -0.25840

 Excited State   6:      Singlet-A      6.9807 eV  177.61 nm  f=0.0157  <S**2>=0.000
      44 -> 48         0.67342
      44 -> 49         0.14923

 Excited State   7:      Singlet-A      7.1504 eV  173.40 nm  f=0.0028  <S**2>=0.000
      39 -> 46         0.14491
      42 -> 46        -0.11165
      43 -> 46         0.59976
      43 -> 47        -0.29133

 Excited State   8:      Singlet-A      7.1687 eV  172.95 nm  f=0.0117  <S**2>=0.000
      39 -> 47         0.14777
      42 -> 47        -0.11496
      43 -> 46         0.28670
      43 -> 47         0.59779

 Excited State   9:      Singlet-A      7.2800 eV  170.31 nm  f=0.0024  <S**2>=0.000
      45 -> 48        -0.11310
      45 -> 49         0.64888
      45 -> 50        -0.21350

 Excited State  10:      Singlet-A      7.4058 eV  167.42 nm  f=0.0018  <S**2>=0.000
      40 -> 46         0.15352
      40 -> 47         0.13046
      41 -> 46         0.15431
      41 -> 47         0.11674
      42 -> 46        -0.16319
      42 -> 47        -0.15794
      45 -> 49         0.19468
      45 -> 50         0.56296

 The electronic state is 1-A.
 Alpha  occ. eigenvalues --  -10.18770 -10.18210 -10.18182 -10.17594 -10.17571
 Alpha  occ. eigenvalues --  -10.17434 -10.17347 -10.17330 -10.16139 -10.15914
 Alpha  occ. eigenvalues --  -10.15664 -10.15525  -0.86143  -0.82601  -0.76688
 Alpha  occ. eigenvalues --   -0.74612  -0.72206  -0.68447  -0.68225  -0.63701
 Alpha  occ. eigenvalues --   -0.60459  -0.58589  -0.53570  -0.50661  -0.46912
 Alpha  occ. eigenvalues --   -0.46884  -0.44960  -0.44000  -0.43733  -0.42734
 Alpha  occ. eigenvalues --   -0.41921  -0.39721  -0.38850  -0.38109  -0.37849
 Alpha  occ. eigenvalues --   -0.36550  -0.36357  -0.35885  -0.34770  -0.33743
 Alpha  occ. eigenvalues --   -0.31990  -0.31955  -0.31055  -0.25491  -0.24626
 Alpha virt. eigenvalues --   -0.01276  -0.01160   0.02726   0.05258   0.05461
 Alpha virt. eigenvalues --    0.06656   0.07731   0.08380   0.08797   0.09214
 Alpha virt. eigenvalues --    0.10011   0.10313   0.11441   0.11979   0.12618

 Mulliken atomic charges:
              1
     1  H    0.124287
     2  C   -0.163122
     3  C   -0.085323
     4  C    0.042338
     5  C   -0.091493
     6  C   -0.120608
     7  C   -0.149739
     8  H    0.105691
     9  H    0.108773
    10  H    0.105027
    11  H    0.104326
    12  C   -0.155891
    13  C    0.109243
    14  C   -0.380148
    15  H    0.118066
    16  H    0.128108
    17  H    0.123766
    18  C   -0.400909
    19  H    0.135462
    20  H    0.116599
    21  H    0.134099
    22  C   -0.389596
    23  H    0.111177
    24  H    0.118669
    25  H    0.147715
    26  H    0.147534
    27  C   -0.429775
    28  H    0.142845
    29  H    0.121753
    30  H    0.121123
 Sum of Mulliken atomic charges =   0.00000

 Dipole moment (field-independent basis, Debye):
    X=              0.2895    Y=             -0.0155    Z=             -0.0548  Tot=              0.2951
 Quadrupole moment (field-independent basis, Debye-Ang):
   XX=            -74.4916   YY=            -75.6733   ZZ=            -77.4429
   XY=             -0.9254   XZ=             -1.3975   YZ=             -3.0198

 Normal termination of Gaussian 09 at Thu Nov 12 09:35:12 2009.
