 Q-Chem 4.2, Q-Chem, Inc., Pleasanton, CA (2014).
 Q-Chem 4.2.0 for Intel X86 EM64T Linux

User input:
--------------------------------------------------------------
$rem
 method = soscis(d0)
 basis = 6-31g(d)
 aux_basis = gen
 purecart = 1111
 cis_n_roots = 20
 mem_static = 8000
 mem_total = 10000
 ao2mo_disk = 10000
$end

$molecule
 +2 2
  Cu  -0.76340642779813     -1.02405517335073     -0.02193513687359
  O   -1.00976839507170      0.78750664054718     -1.81382181275398
  H   -1.56162901515337      0.76800651598954     -2.60164333481467
  N   -2.32386388521900     -0.08996155552844      0.95795351424424
  H   -3.16060956596427     -0.65173388564472      1.08500923139546
  N   -2.09884273655719     -2.29852671183089     -0.94870062460663
  H   -2.16597793014165     -3.13530089086939     -0.37313979047614
  N   0.59568029943888      0.07645483333462      1.07761062918926
  H   0.25185512490480      0.96103973993761      1.43977161066447
  N   0.77382291034593     -1.78330780266182     -1.17430047079735
  H   0.63362194243690     -2.72631604889461     -1.52495746398191
  O   -0.51957653465232     -2.83386966497095      1.77170496370122
  H   -1.03183424668359     -2.93792944478719      2.57938855830821
  H   -2.59924049481669      0.71008625319212      0.39219190198367
  H   -1.83366890615023     -2.61147131230732     -1.87800911220187
  H   0.10267443565773     -3.56722137766703      1.79656723730246
  H   1.68766615319018     -1.79878533264157     -0.73096477178951
  H   1.46295823115022      0.30471732294095      0.60052839043211
  H   -0.57384508102292      1.64402610076254     -1.85814731457755
  H   -2.10643929417990      0.27403971149829      1.88105326890770
  H   -3.04530738405428     -1.94346866572263     -1.04873743715050
  H   0.86239393137460     -1.18397212522385     -1.99217590082646
  H   0.85308686896600     -0.48372712610170      1.88750386472139
$end

$aux_basis
****
H    0
S  2  1.00
    9.33521609             .64609379
    1.86110704            1.37005241
S  1  1.00
     .59512466            1.00000000
S  1  1.00
     .26448099            1.00000000
P  2  1.00
    2.45249821             .13284956
    1.35403830            1.45276215
P  1  1.00
     .59522394            1.00000000
D  2  1.00
    1.58163766            1.49367397
     .62743960            -.01070690
! C. Hättig; PCCP 7, 59 (2005).
****
N    0
S  3  1.00
  291.18394257             .56533084
   62.03053238            1.37490932
   21.98113229             .28294012
S  1  1.00
    9.06711534            1.00000000
S  1  1.00
    3.60654848            1.00000000
S  1  1.00
    1.37284474            1.00000000
S  1  1.00
     .63709085            1.00000000
S  1  1.00
     .26907231            1.00000000
P  2  1.00
   34.12169197            1.03739350
    8.66927085             .98879118
P  1  1.00
    3.96958444            1.00000000
P  1  1.00
    1.67569027            1.00000000
P  1  1.00
     .69769401            1.00000000
P  1  1.00
     .33582544            1.00000000
D  2  1.00
   12.72717340             .53636257
    5.02916611            1.31247449
D  1  1.00
    2.09125025            1.00000000
D  1  1.00
     .85902043            1.00000000
D  1  1.00
     .35068479            1.00000000
F  3  1.00
    3.46865369             .90354051
    1.66865042            1.65562725
     .80947600             .24984638
! C. Hättig; PCCP 7, 59 (2005).
****
O    0
S  3  1.00
  364.91291000             .58060367
   77.38709400            1.40179849
   24.30170600             .34994578
S  1  1.00
    8.43695450            1.00000000
S  1  1.00
    3.15279410            1.00000000
S  1  1.00
    1.57754300            1.00000000
S  1  1.00
     .78178244            1.00000000
S  1  1.00
     .31652679            1.00000000
P  2  1.00
   56.73594800            1.06024410
   14.99721700            1.20038258
P  1  1.00
    5.64281160            1.00000000
P  1  1.00
    2.40692198            1.00000000
P  1  1.00
    1.02640596            1.00000000
P  1  1.00
     .43769977            1.00000000
D  2  1.00
   12.44682100            1.13716995
    6.12169170             .77017590
D  1  1.00
    2.71029490            1.00000000
D  1  1.00
    1.15240610            1.00000000
D  1  1.00
     .41386174            1.00000000
F  3  1.00
    4.77935390             .25251741
    2.32046420            1.78671278
    1.09128040             .32923623
! C. Hättig; PCCP 7, 59 (2005).
****
Cu    0
S  3  1.00
   76.61888700             .22127009
   35.84420500            1.10771089
   17.43598000           -1.23596756
S  1  1.00
    8.79010800            1.00000000
S  1  1.00
    4.57569200            1.00000000
S  1  1.00
    2.44935700            1.00000000
S  1  1.00
    1.34224700            1.00000000
S  1  1.00
     .74938200            1.00000000
S  1  1.00
     .42407900            1.00000000
S  1  1.00
     .24196400            1.00000000
S  1  1.00
     .13843600            1.00000000
P  2  1.00
  214.96507000            -.38582926
   49.56055100            1.55957840
P  2  1.00
   21.13481700           -1.17913540
    5.35438120            1.89982860
P  1  1.00
    2.19793250            1.00000000
P  1  1.00
    1.36618190            1.00000000
P  1  1.00
     .60037788            1.00000000
P  1  1.00
     .33277531            1.00000000
P  1  1.00
     .14673856            1.00000000
D  2  1.00
  106.44265000            2.09841882
   23.19483600           10.00024900
D  2  1.00
    8.84118380             .94747908
    4.57102270            1.26590806
D  1  1.00
    1.82217990            1.00000000
D  1  1.00
     .85046261            1.00000000
D  1  1.00
     .38749958            1.00000000
F  4  1.00
   52.13364200           -1.27232142
   13.24690900            1.15816535
    6.28481480            2.20111275
    3.05058080             .70886158
F  1  1.00
    1.47003350            1.00000000
F  1  1.00
     .50664456            1.00000000
G  3  1.00
   17.80510400            1.25317348
    6.02365790            1.31975806
    2.06261490            -.16398042
G  1  1.00
     .70220936            1.00000000
! C. Hättig; PCCP 7, 59 (2005).
****
$end
--------------------------------------------------------------

             Standard Nuclear Orientation (Angstroms)
    I     Atom           X                Y                Z
 ----------------------------------------------------------------
    1      Cu      0.0000760128    -0.0003446231     0.0003431801
    2      O      -2.5598652584     0.0020389706     0.0021570387
    3      H      -3.1497877594     0.4235048907     0.6345738874
    4      N      -0.1244384513     1.7137841922    -1.1459546367
    5      H       0.2825824608     2.5478070615    -0.7328995907
    6      N       0.1270184993     1.1461534649     1.7138162163
    7      H       1.1158522521     1.2843344941     1.9115085202
    8      N       0.1194555194    -1.1469537293    -1.7137968345
    9      H      -0.2863181222    -0.7317998381    -2.5473805331
   10      N      -0.1221016748    -1.7147130642     1.1464225476
   11      H       0.2869989435    -1.6513583490     2.0740561255
   12      O       2.5597655497     0.0000837286    -0.0036081130
   13      H       3.1497466864     0.6298630451    -0.4289191299
   14      H      -1.1130261160     1.9145691257    -1.2815083708
   15      H      -0.2762872771     0.7323838503     2.5492830948
   16      H       3.1557299039    -0.6262955213     0.4184045184
   17      H       0.2860507170    -2.5481999600     0.7333768019
   18      H      -0.2933736771    -2.0729907360    -1.6512688066
   19      H      -3.1558975513    -0.4169034821    -0.6262156204
   20      H       0.2843256898     1.6511235668    -2.0737849311
   21      H      -0.2845302390     2.0727973259     1.6519478086
   22      H      -1.1102839138    -1.9170298196     1.2825551743
   23      H       1.1072740516    -1.2866892235    -1.9154836257
 ----------------------------------------------------------------

   41   -2015.1386084466      8.08E-09 Convergence criterion met
 Total energy in the final basis set = -2015.1386084466

                    Orbital Energies (a.u.)
 --------------------------------------------------------------

 Alpha MOs
 -- Occupied --
******* -41.363 -36.174 -36.174 -36.135 -20.859 -20.859 -15.878
-15.878 -15.878 -15.878  -5.562  -3.903  -3.903  -3.819  -1.641
 -1.641  -1.494  -1.483  -1.483  -1.476  -1.096  -1.033  -1.007
 -1.007  -0.996  -0.996  -0.991  -0.971  -0.963  -0.963  -0.962
 -0.958  -0.945  -0.945  -0.937  -0.910  -0.886  -0.833  -0.818
 -0.818  -0.800  -0.800  -0.729

 Beta MOs
 -- Occupied --
******* -41.321 -36.124 -36.119 -36.119 -20.859 -20.859 -15.876
-15.876 -15.876 -15.876  -5.460  -3.790  -3.734  -3.734  -1.641
 -1.641  -1.490  -1.479  -1.479  -1.471  -1.017  -1.004  -1.004
 -0.976  -0.976  -0.970  -0.962  -0.962  -0.957  -0.951  -0.949
 -0.936  -0.920  -0.920  -0.908  -0.887  -0.816  -0.809  -0.809
 -0.798  -0.798  -0.789

          Ground-State Mulliken Net Atomic Charges

     Atom                 Charge (a.u.)    Spin (a.u.)
  --------------------------------------------------------
      1 Cu                    1.255122       0.919010
      2 O                    -0.945742      -0.000283
      3 H                     0.506493      -0.000101
      4 N                    -1.176848       0.026753
      5 H                     0.435698      -0.001996
      6 N                    -1.176844       0.026741
      7 H                     0.457940      -0.002267
      8 N                    -1.176785       0.026755
      9 H                     0.435647      -0.001997
     10 N                    -1.176763       0.026762
     11 H                     0.435656      -0.001999
     12 O                    -0.945749      -0.000284
     13 H                     0.506479      -0.000101
     14 H                     0.457933      -0.002272
     15 H                     0.435696      -0.001990
     16 H                     0.506637      -0.000103
     17 H                     0.435812      -0.001995
     18 H                     0.435833      -0.001996
     19 H                     0.506607      -0.000103
     20 H                     0.435710      -0.001996
     21 H                     0.435751      -0.001995
     22 H                     0.457843      -0.002272
     23 H                     0.457873      -0.002270
  --------------------------------------------------------
  Sum of atomic charges =     2.000000

                    Cartesian Multipole Moments
 -----------------------------------------------------------------
    Charge (ESU x 10^10)
                 9.6064
    Dipole Moment (Debye)
         X      -0.0003      Y       0.0073      Z       0.0016
       Tot       0.0075
    Quadrupole Moments (Debye-Ang)
        XX     -10.9868     XY       0.0059     YY     -20.6496
        XZ      -0.0079     YZ      -0.0053     ZZ     -20.6309

 Total job time:  16114.02s(wall), 16233.60s(cpu)
        *  Thank you very much for using Q-Chem.  Have a nice day.  *
